TITLE = "SOLUTION_FIELD"
VARIABLES = "x" "y" "u" "v" "p"
ZONE N=1089, E=2048, F=FEPOINT, ET=TRIANGLE
0	0	0	0	0.999028
0	0.03125	0	0	0.998966
0	0.0625	0	0	0.998815
0	0.09375	0	0	0.998964
0	0.125	0	0	0.999048
0	0.15625	0	0	0.999031
0	0.1875	0	0	0.999823
0	0.21875	0	0	0.99933
0	0.25	0	0	1.00079
0	0.28125	0	0	0.999548
0	0.3125	0	0	1.00116
0	0.34375	0	0	0.998713
0	0.375	0	0	1.00028
0	0.40625	0	0	0.996918
0	0.4375	0	0	0.997966
0	0.46875	0	0	0.995283
0	0.5	0	0	0.995529
0	0.53125	0	0	0.994666
0	0.5625	0	0	0.99414
0	0.59375	0	0	0.995161
0	0.625	0	0	0.994122
0	0.65625	0	0	0.996175
0	0.6875	0	0	0.995116
0	0.71875	0	0	0.996975
0	0.75	0	0	0.996482
0	0.78125	0	0	0.997383
0	0.8125	0	0	0.997661
0	0.84375	0	0	0.997654
0	0.875	0	0	0.998821
0	0.90625	0	0	0.998259
0	0.9375	0	0	1.00418
0	0.96875	0	0	0.995202
0	1	1	0	0.995556
0.03125	0	0	0	0.99909
0.03125	0.03125	0.00158555	-0.00157482	0.999071
0.03125	0.0625	0.000283061	-0.00337961	0.999138
0.03125	0.09375	0.0019457	-0.00542252	0.999131
0.03125	0.125	6.82757e-05	-0.00745745	0.999213
0.03125	0.15625	-0.000331095	-0.00785249	0.999244
0.03125	0.1875	-0.000585899	-0.00553695	0.999487
0.03125	0.21875	-0.00706049	0.000210651	0.999382
0.03125	0.25	-0.00132954	0.0117679	0.999911
0.03125	0.28125	-0.0127223	0.0236903	0.99914
0.03125	0.3125	-0.00198804	0.0418663	0.999864
0.03125	0.34375	-0.0127385	0.0559021	0.998151
0.03125	0.375	-0.00235632	0.0735319	0.998803
0.03125	0.40625	-0.00711513	0.0850401	0.996695
0.03125	0.4375	-0.00165341	0.0942171	0.997068
0.03125	0.46875	-5.59146e-05	0.0997289	0.99563
0.03125	0.5	-0.000248447	0.0984794	0.995667
0.03125	0.53125	0.0059617	0.0958679	0.99547
0.03125	0.5625	0.0010914	0.0869785	0.995191
0.03125	0.59375	0.00965786	0.0758189	0.995962
0.03125	0.625	0.00176475	0.0646362	0.995524
0.03125	0.65625	0.0102053	0.0475183	0.996467
0.03125	0.6875	0.00154324	0.0394814	0.996235
0.03125	0.71875	0.00767655	0.0226247	0.996648
0.03125	0.75	0.000686652	0.020134	0.996932
0.03125	0.78125	0.0038831	0.00897349	0.996521
0.03125	0.8125	-0.000294575	0.0105768	0.997311
0.03125	0.84375	0.00141156	0.00304382	0.996034
0.03125	0.875	-0.00136366	0.00817252	0.997406
0.03125	0.90625	-0.00640037	0.0106833	0.994926
0.03125	0.9375	-0.00893368	0.0310947	0.996666
0.03125	0.96875	0.026462	0.0152118	0.99392
0.03125	1	1	0	0.995911
0.0625	0	0	0	0.999133
0.0625	0.03125	0.00327233	-0.000154865	0.998907
0.0625	0.0625	0.00300137	-0.00292879	0.998982
0.0625	0.09375	0.00388885	-0.00627676	0.998887
0.0625	0.125	0.000570527	-0.00556118	0.999103
0.0625	0.15625	-0.00207183	-0.00475195	0.999002
0.0625	0.1875	-0.00796778	0.00457699	0.999481
0.0625	0.21875	-0.0168786	0.0139737	0.999382
0.0625	0.25	-0.0193956	0.0325665	1.00006
0.0625	0.28125	-0.0284414	0.0508831	0.999544
0.0625	0.3125	-0.0255083	0.0701855	0.999968
0.0625	0.34375	-0.0292949	0.0943918	0.998658
0.0625	0.375	-0.0229334	0.107525	0.998509
0.0625	0.40625	-0.0189943	0.12926	0.996807
0.0625	0.4375	-0.0132757	0.135692	0.996277
0.0625	0.46875	-0.00426125	0.148863	0.995034
0.0625	0.5	-0.000410038	0.150008	0.994538
0.0625	0.53125	0.00996241	0.151226	0.994239
0.0625	0.5625	0.0124122	0.148031	0.994062
0.0625	0.59375	0.0204449	0.135755	0.99461
0.0625	0.625	0.0216551	0.127899	0.994816
0.0625	0.65625	0.0242025	0.103891	0.995658
0.0625	0.6875	0.0232991	0.0912235	0.996117
0.0625	0.71875	0.0197931	0.0621783	0.996657
0.0625	0.75	0.017007	0.048432	0.997231
0.0625	0.78125	0.0113559	0.0230292	0.997268
0.0625	0.8125	0.00955956	0.015096	0.998042
0.0625	0.84375	0.00594444	-0.00279001	0.997621
0.0625	0.875	0.00256301	-0.00267147	0.998938
0.0625	0.90625	-0.016256	-0.0138454	0.998185
0.0625	0.9375	-0.0202317	0.00207096	1.00156
0.0625	0.96875	0.0374439	0.00556067	0.999029
0.0625	1	1	0	1.0025
0.09375	0	0	0	0.999111
0.09375	0.03125	0.00424331	-0.0010637	0.998953
0.09375	0.0625	0.00651064	-0.0016872	0.999157
0.09375	0.09375	0.0028912	-0.000920493	0.998978
0.09375	0.125	-0.00156489	0.0019249	0.999146
0.09375	0.15625	-0.0119567	0.0111578	0.999069
0.09375	0.1875	-0.0197828	0.0248041	0.999256
0.09375	0.21875	-0.0355065	0.0440323	0.999067
0.09375	0.25	-0.0392805	0.0663535	0.999392
0.09375	0.28125	-0.0472773	0.0883968	0.998532
0.09375	0.3125	-0.0467867	0.112831	0.998721
0.09375	0.34375	-0.0436569	0.129984	0.997157
0.09375	0.375	-0.038007	0.148093	0.996966
0.09375	0.40625	-0.029076	0.158315	0.995371
0.09375	0.4375	-0.0211769	0.169639	0.994964
0.09375	0.46875	-0.0104009	0.172684	0.993949
0.09375	0.5	-0.00210314	0.179309	0.993667
0.09375	0.53125	0.00842945	0.175585	0.993447
0.09375	0.5625	0.0167526	0.178068	0.993497
0.09375	0.59375	0.0257513	0.168342	0.993927
0.09375	0.625	0.0331368	0.164589	0.994315
0.09375	0.65625	0.0389857	0.148954	0.995056
0.09375	0.6875	0.0424287	0.136201	0.995598
0.09375	0.71875	0.0424427	0.113561	0.99623
0.09375	0.75	0.0389027	0.0941595	0.996695
0.09375	0.78125	0.0319663	0.0673638	0.996697
0.09375	0.8125	0.0238631	0.0518907	0.997201
0.09375	0.84375	0.014609	0.0332745	0.996291
0.09375	0.875	0.00634523	0.0301103	0.997112
0.09375	0.90625	-0.0122684	0.0245336	0.995349
0.09375	0.9375	-0.0375975	0.0275551	0.996787
0.09375	0.96875	0.0724525	0.0124491	0.993712
0.09375	1	1	0	0.997431
0.125	0	0	0	0.998867
0.125	0.03125	0.00509661	0.000137512	0.998864
0.125	0.0625	0.00481725	0.000911077	0.998806
0.125	0.09375	0.000334915	0.00297283	0.998843
0.125	0.125	-0.0102765	0.0114321	0.998946
0.125	0.15625	-0.0248783	0.0246124	0.99891
0.125	0.1875	-0.0420597	0.045524	0.999154
0.125	0.21875	-0.0577541	0.0715896	0.998912
0.125	0.25	-0.0658915	0.0947423	0.998812
0.125	0.28125	-0.0733509	0.124155	0.998026
0.125	0.3125	-0.0681849	0.140762	0.997199
0.125	0.34375	-0.0629935	0.160643	0.995961
0.125	0.375	-0.0521804	0.171176	0.994762
0.125	0.40625	-0.0397018	0.181005	0.993519
0.125	0.4375	-0.0279046	0.187079	0.992479
0.125	0.46875	-0.0136838	0.190404	0.991663
0.125	0.5	-0.00228978	0.1928	0.991113
0.125	0.53125	0.0111772	0.191845	0.99096
0.125	0.5625	0.0219689	0.190432	0.991025
0.125	0.59375	0.0337151	0.185855	0.99154
0.125	0.625	0.0432585	0.180138	0.992181
0.125	0.65625	0.0521837	0.170752	0.993141
0.125	0.6875	0.0585836	0.16032	0.99417
0.125	0.71875	0.0617844	0.142578	0.99517
0.125	0.75	0.0618484	0.126644	0.996304
0.125	0.78125	0.0550193	0.0987772	0.996881
0.125	0.8125	0.046999	0.0785555	0.997977
0.125	0.84375	0.0308478	0.049075	0.997946
0.125	0.875	0.0185087	0.0322121	0.999369
0.125	0.90625	-0.00803296	0.0134446	0.99902
0.125	0.9375	-0.0309435	0.00238336	1.00088
0.125	0.96875	0.0712754	0.00236333	1.00018
0.125	1	1	0	1.0011
0.15625	0	0	0	0.999086
0.15625	0.03125	0.00428892	0.000322668	0.998859
0.15625	0.0625	0.00412716	0.00219641	0.999112
0.15625	0.09375	-0.00732381	0.009718	0.998933
0.15625	0.125	-0.0230462	0.0220851	0.999056
0.15625	0.15625	-0.0479862	0.0444092	0.998849
0.15625	0.1875	-0.0668796	0.0720038	0.998767
0.15625	0.21875	-0.0833336	0.0982517	0.997958
0.15625	0.25	-0.0920223	0.126929	0.997443
0.15625	0.28125	-0.0892127	0.143939	0.995848
0.15625	0.3125	-0.0835689	0.160284	0.994933
0.15625	0.34375	-0.0711852	0.168814	0.993205
0.15625	0.375	-0.0587167	0.175732	0.992173
0.15625	0.40625	-0.0441206	0.178733	0.990912
0.15625	0.4375	-0.0306905	0.182995	0.990041
0.15625	0.46875	-0.0167054	0.182644	0.989439
0.15625	0.5	-0.00340614	0.186649	0.988964
0.15625	0.53125	0.00952755	0.184018	0.988999
0.15625	0.5625	0.0229602	0.187242	0.989066
0.15625	0.59375	0.0349549	0.182241	0.989642
0.15625	0.625	0.048163	0.183333	0.990282
0.15625	0.65625	0.0584844	0.174568	0.991257
0.15625	0.6875	0.0697199	0.171888	0.99236
0.15625	0.71875	0.0754799	0.157185	0.993505
0.15625	0.75	0.0809639	0.148071	0.994764
0.15625	0.78125	0.0768448	0.126076	0.995644
0.15625	0.8125	0.071466	0.10841	0.996695
0.15625	0.84375	0.0542115	0.0829388	0.996785
0.15625	0.875	0.0385861	0.0628242	0.997706
0.15625	0.90625	0.0166799	0.0419223	0.996985
0.15625	0.9375	-0.0317936	0.0246538	0.99855
0.15625	0.96875	0.096624	0.0115962	0.99708
0.15625	1	1	0	0.998716
0.1875	0	0	0	0.99855
0.1875	0.03125	0.00314436	0.00044526	0.998779
0.1875	0.0625	-0.00305081	0.00523529	0.998641
0.1875	0.09375	-0.0194477	0.0148198	0.998783
0.1875	0.125	-0.0462462	0.0356709	0.998833
0.1875	0.15625	-0.0744996	0.0642832	0.998513
0.1875	0.1875	-0.0963379	0.0918611	0.998061
0.1875	0.21875	-0.111923	0.121449	0.996915
0.1875	0.25	-0.110183	0.13792	0.99552
0.1875	0.28125	-0.10588	0.15242	0.993952
0.1875	0.3125	-0.0926547	0.159788	0.992252
0.1875	0.34375	-0.0779901	0.162699	0.99078
0.1875	0.375	-0.0630072	0.166011	0.98941
0.1875	0.40625	-0.0467549	0.166096	0.988245
0.1875	0.4375	-0.0327513	0.16803	0.987375
0.1875	0.46875	-0.0172587	0.168327	0.986663
0.1875	0.5	-0.00402077	0.169536	0.986318
0.1875	0.53125	0.0106349	0.170137	0.986177
0.1875	0.5625	0.0237375	0.170449	0.986391
0.1875	0.59375	0.0377602	0.170801	0.986862
0.1875	0.625	0.0509602	0.169675	0.987664
0.1875	0.65625	0.0639259	0.168424	0.988705
0.1875	0.6875	0.076252	0.164337	0.990055
0.1875	0.71875	0.0860212	0.159045	0.991537
0.1875	0.75	0.0937995	0.148955	0.993283
0.1875	0.78125	0.0955038	0.136414	0.994899
0.1875	0.8125	0.0916593	0.116844	0.996789
0.1875	0.84375	0.0788119	0.0954354	0.998047
0.1875	0.875	0.0576024	0.0676795	0.999817
0.1875	0.90625	0.0347496	0.0462043	1.00052
0.1875	0.9375	-0.00650849	0.0163647	1.00154
0.1875	0.96875	0.0995781	0.00126146	1.00207
0.1875	1	1	0	1.0018
0.21875	0	0	0	0.999045
0.21875	0.03125	0.000907726	0.00224104	0.998761
0.21875	0.0625	-0.00953896	0.00739972	0.999021
0.21875	0.09375	-0.0384495	0.0258754	0.998903
0.21875	0.125	-0.0722648	0.0518365	0.998698
0.21875	0.15625	-0.104903	0.0821456	0.997974
0.21875	0.1875	-0.124373	0.110455	0.996837
0.21875	0.21875	-0.127508	0.128171	0.994963
0.21875	0.25	-0.123523	0.140578	0.993326
0.21875	0.28125	-0.109835	0.146598	0.991216
0.21875	0.3125	-0.0944933	0.146989	0.989709
0.21875	0.34375	-0.0779956	0.148327	0.988157
0.21875	0.375	-0.0624977	0.14768	0.986917
0.21875	0.40625	-0.0470616	0.147852	0.985985
0.21875	0.4375	-0.0329935	0.149018	0.985095
0.21875	0.46875	-0.0185786	0.148859	0.984682
0.21875	0.5	-0.0050021	0.150909	0.984256
0.21875	0.53125	0.00879779	0.150359	0.984311
0.21875	0.5625	0.0226706	0.152694	0.984434
0.21875	0.59375	0.0361521	0.151589	0.984933
0.21875	0.625	0.0507956	0.154071	0.985656
0.21875	0.65625	0.0641121	0.152019	0.986586
0.21875	0.6875	0.0789271	0.153647	0.987924
0.21875	0.71875	0.09092	0.148994	0.989258
0.21875	0.75	0.102789	0.146888	0.991141
0.21875	0.78125	0.108548	0.13628	0.99268
0.21875	0.8125	0.110932	0.126142	0.994843
0.21875	0.84375	0.102456	0.106717	0.996088
0.21875	0.875	0.0857534	0.0849068	0.99811
0.21875	0.90625	0.067242	0.0587384	0.998594
0.21875	0.9375	0.0108699	0.0295794	1.00028
0.21875	0.96875	0.116072	0.0142426	0.999641
0.21875	1	1	0	1.00014
0.25	0	0	0	0.997949
0.25	0.03125	-0.00404006	0.000968866	0.998532
0.25	0.0625	-0.0258798	0.0132222	0.998413
0.25	0.09375	-0.0638608	0.034991	0.998454
0.25	0.125	-0.105003	0.0651102	0.998142
0.25	0.15625	-0.133533	0.0941414	0.996864
0.25	0.1875	-0.141932	0.11274	0.995205
0.25	0.21875	-0.14213	0.126045	0.993119
0.25	0.25	-0.127715	0.130927	0.990931
0.25	0.28125	-0.112253	0.130642	0.989117
0.25	0.3125	-0.0952686	0.131495	0.987385
0.25	0.34375	-0.0785849	0.129798	0.985982
0.25	0.375	-0.0636596	0.130969	0.984783
0.25	0.40625	-0.0481388	0.130878	0.983768
0.25	0.4375	-0.0342002	0.132686	0.983009
0.25	0.46875	-0.0193235	0.132712	0.982434
0.25	0.5	-0.00548351	0.134585	0.982138
0.25	0.53125	0.00872438	0.134068	0.982047
0.25	0.5625	0.0228583	0.135533	0.982265
0.25	0.59375	0.0364965	0.13476	0.982684
0.25	0.625	0.0511259	0.135608	0.983446
0.25	0.65625	0.0647227	0.135135	0.984403
0.25	0.6875	0.0798972	0.135072	0.985742
0.25	0.71875	0.0932695	0.134252	0.987282
0.25	0.75	0.107194	0.131138	0.989264
0.25	0.78125	0.116965	0.126711	0.991341
0.25	0.8125	0.121866	0.115389	0.993916
0.25	0.84375	0.121587	0.103185	0.996102
0.25	0.875	0.103083	0.078904	0.998683
0.25	0.90625	0.0929798	0.0581645	1.00011
0.25	0.9375	0.0440663	0.0270339	1.00129
0.25	0.96875	0.132891	0.00179844	1.00172
0.25	1	1	0	1.0022
0.28125	0	0	0	0.998926
0.28125	0.03125	-0.00862112	0.00653585	0.998631
0.28125	0.0625	-0.0427431	0.0178711	0.998692
0.28125	0.09375	-0.0938816	0.0468877	0.998453
0.28125	0.125	-0.132135	0.0746023	0.99734
0.28125	0.15625	-0.152827	0.0960483	0.995586
0.28125	0.1875	-0.156995	0.110452	0.993392
0.28125	0.21875	-0.144313	0.115154	0.990905
0.28125	0.25	-0.128478	0.115455	0.988913
0.28125	0.28125	-0.110704	0.115084	0.986962
0.28125	0.3125	-0.0937948	0.1138	0.985406
0.28125	0.34375	-0.0782713	0.113836	0.984092
0.28125	0.375	-0.0636625	0.115122	0.98289
0.28125	0.40625	-0.0488842	0.115468	0.982037
0.28125	0.4375	-0.0348632	0.117367	0.981239
0.28125	0.46875	-0.020308	0.117499	0.980818
0.28125	0.5	-0.00632882	0.119057	0.980479
0.28125	0.53125	0.00797248	0.118852	0.980498
0.28125	0.5625	0.02206	0.119834	0.980658
0.28125	0.59375	0.0361954	0.119335	0.981109
0.28125	0.625	0.0505469	0.119778	0.981799
0.28125	0.65625	0.0648336	0.119142	0.982666
0.28125	0.6875	0.0798498	0.119497	0.983933
0.28125	0.71875	0.0948623	0.118728	0.985227
0.28125	0.75	0.109913	0.118329	0.987156
0.28125	0.78125	0.124067	0.115212	0.988879
0.28125	0.8125	0.133393	0.109924	0.991478
0.28125	0.84375	0.139192	0.0992559	0.993327
0.28125	0.875	0.129371	0.0835412	0.996159
0.28125	0.90625	0.12048	0.0612233	0.997297
0.28125	0.9375	0.0653081	0.0348381	0.999328
0.28125	0.96875	0.144956	0.0160646	0.999113
0.28125	1	1	0	0.99921
0.3125	0	0	0	0.996819
0.3125	0.03125	-0.0220286	0.00177798	0.997927
0.3125	0.0625	-0.0703061	0.0244635	0.997895
0.3125	0.09375	-0.121507	0.0509371	0.997461
0.3125	0.125	-0.156314	0.075334	0.996196
0.3125	0.15625	-0.170135	0.0920267	0.993992
0.3125	0.1875	-0.160066	0.0983867	0.991489
0.3125	0.21875	-0.146922	0.100043	0.989226
0.3125	0.25	-0.127397	0.0997992	0.98702
0.3125	0.28125	-0.110271	0.0977801	0.985319
0.3125	0.3125	-0.0947103	0.0987718	0.983725
0.3125	0.34375	-0.0797355	0.0991128	0.982401
0.3125	0.375	-0.0653366	0.100834	0.981236
0.3125	0.40625	-0.0503979	0.101399	0.980292
0.3125	0.4375	-0.036107	0.103066	0.979557
0.3125	0.46875	-0.0211366	0.103077	0.979029
0.3125	0.5	-0.00688287	0.104466	0.978771
0.3125	0.53125	0.00778879	0.104064	0.978682
0.3125	0.5625	0.0221844	0.105008	0.978933
0.3125	0.59375	0.0364587	0.104119	0.979297
0.3125	0.625	0.0511381	0.104449	0.980075
0.3125	0.65625	0.0651154	0.103063	0.980901
0.3125	0.6875	0.0803079	0.102845	0.982221
0.3125	0.71875	0.0947744	0.101376	0.983545
0.3125	0.75	0.110806	0.1005	0.985486
0.3125	0.78125	0.125809	0.0981564	0.987377
0.3125	0.8125	0.137994	0.0933552	0.990038
0.3125	0.84375	0.148826	0.085752	0.992306
0.3125	0.875	0.14087	0.0711605	0.99525
0.3125	0.90625	0.143787	0.053633	0.996892
0.3125	0.9375	0.0992137	0.0299035	0.99864
0.3125	0.96875	0.1721	0.00278064	0.998528
0.3125	1	1	0	1.0004
0.34375	0	0	0	0.998437
0.34375	0.03125	-0.0319863	0.0113599	0.998372
0.34375	0.0625	-0.091635	0.0286775	0.997845
0.34375	0.09375	-0.148537	0.0541918	0.997015
0.34375	0.125	-0.174396	0.0730017	0.99492
0.34375	0.15625	-0.174931	0.0811247	0.992496
0.34375	0.1875	-0.164899	0.0861064	0.989879
0.34375	0.21875	-0.144448	0.0843579	0.987536
0.34375	0.25	-0.126028	0.0834611	0.985538
0.34375	0.28125	-0.110119	0.0831033	0.98386
0.34375	0.3125	-0.095082	0.0843787	0.982267
0.34375	0.34375	-0.0803825	0.0847918	0.981025
0.34375	0.375	-0.065953	0.0866061	0.979818
0.34375	0.40625	-0.0509448	0.0866979	0.978972
0.34375	0.4375	-0.0365106	0.0881824	0.978202
0.34375	0.46875	-0.0216463	0.0880144	0.977779
0.34375	0.5	-0.0072524	0.089445	0.977471
0.34375	0.53125	0.0074251	0.0890827	0.977468
0.34375	0.5625	0.0220483	0.0902813	0.977647
0.34375	0.59375	0.0366176	0.0896753	0.978061
0.34375	0.625	0.0515839	0.0903021	0.978739
0.34375	0.65625	0.0661451	0.0893006	0.979563
0.34375	0.6875	0.0814573	0.0891309	0.980746
0.34375	0.71875	0.0967322	0.0878686	0.981966
0.34375	0.75	0.11283	0.0871814	0.983703
0.34375	0.78125	0.130548	0.0854588	0.985316
0.34375	0.8125	0.144988	0.0830496	0.987732
0.34375	0.84375	0.161114	0.0768347	0.98956
0.34375	0.875	0.16036	0.0681919	0.992458
0.34375	0.90625	0.163204	0.0517029	0.993625
0.34375	0.9375	0.112837	0.0345066	0.9959
0.34375	0.96875	0.183156	0.0154114	0.995644
0.34375	1	1	0	0.996021
0.375	0	0	0	0.995483
0.375	0.03125	-0.0516042	0.00235444	0.997086
0.375	0.0625	-0.122534	0.0299789	0.99667
0.375	0.09375	-0.167497	0.0488337	0.995806
0.375	0.125	-0.184083	0.0631043	0.993547
0.375	0.15625	-0.183114	0.0695352	0.991083
0.375	0.1875	-0.162169	0.0703234	0.988364
0.375	0.21875	-0.143829	0.0684601	0.986317
0.375	0.25	-0.126358	0.0692842	0.984246
0.375	0.28125	-0.111036	0.0685369	0.982619
0.375	0.3125	-0.0966709	0.0704817	0.981037
0.375	0.34375	-0.0819462	0.070671	0.979724
0.375	0.375	-0.0671577	0.0721823	0.978562
0.375	0.40625	-0.0520266	0.0719418	0.97763
0.375	0.4375	-0.0374898	0.0733663	0.976934
0.375	0.46875	-0.0224917	0.0730846	0.976402
0.375	0.5	-0.00801844	0.0744385	0.976185
0.375	0.53125	0.00685658	0.07404	0.976068
0.375	0.5625	0.0215326	0.0751647	0.976342
0.375	0.59375	0.0363733	0.0745352	0.976649
0.375	0.625	0.0514011	0.0752125	0.977428
0.375	0.65625	0.0662962	0.0741146	0.978155
0.375	0.6875	0.0815602	0.0740752	0.979444
0.375	0.71875	0.0968881	0.0722433	0.980572
0.375	0.75	0.112835	0.071687	0.982394
0.375	0.78125	0.130206	0.0691267	0.983918
0.375	0.8125	0.146271	0.0675384	0.986342
0.375	0.84375	0.164153	0.0619714	0.988206
0.375	0.875	0.166079	0.0550016	0.990978
0.375	0.90625	0.179417	0.0416274	0.99244
0.375	0.9375	0.144855	0.0265617	0.994427
0.375	0.96875	0.211293	0.00294475	0.994108
0.375	1	1	0	0.996538
0.40625	0	0	0	0.997189
0.40625	0.03125	-0.0677458	0.0132716	0.997786
0.40625	0.0625	-0.13863	0.0303575	0.996379
0.40625	0.09375	-0.181277	0.043166	0.995199
0.40625	0.125	-0.195098	0.0546807	0.992387
0.40625	0.15625	-0.180592	0.0544083	0.990007
0.40625	0.1875	-0.163141	0.0564873	0.987286
0.40625	0.21875	-0.142411	0.0538638	0.985294
0.40625	0.25	-0.125967	0.0545917	0.983255
0.40625	0.28125	-0.111707	0.0545344	0.981699
0.40625	0.3125	-0.0972078	0.0563271	0.980046
0.40625	0.34375	-0.0819939	0.0559834	0.978815
0.40625	0.375	-0.0671988	0.0573298	0.977612
0.40625	0.40625	-0.0521676	0.057031	0.976772
0.40625	0.4375	-0.0376091	0.0584481	0.976026
0.40625	0.46875	-0.0227235	0.0582245	0.975587
0.40625	0.5	-0.00815907	0.0596882	0.975304
0.40625	0.53125	0.00673855	0.0594545	0.975266
0.40625	0.5625	0.0215782	0.0607952	0.975456
0.40625	0.59375	0.0366133	0.0604673	0.975813
0.40625	0.625	0.0519632	0.0615279	0.976482
0.40625	0.65625	0.0672898	0.0608801	0.977224
0.40625	0.6875	0.083192	0.0613932	0.978366
0.40625	0.71875	0.0989852	0.0600291	0.97946
0.40625	0.75	0.115683	0.0599176	0.981065
0.40625	0.78125	0.133987	0.057784	0.982454
0.40625	0.8125	0.151612	0.0572857	0.984571
0.40625	0.84375	0.172742	0.0526936	0.986088
0.40625	0.875	0.180081	0.049691	0.988678
0.40625	0.90625	0.191595	0.0376838	0.989545
0.40625	0.9375	0.146725	0.0302222	0.991809
0.40625	0.96875	0.223304	0.0134655	0.991243
0.40625	1	1	0	0.992066
0.4375	0	0	0	0.994697
0.4375	0.03125	-0.0842083	0.00206077	0.99633
0.4375	0.0625	-0.160591	0.0235969	0.995157
0.4375	0.09375	-0.192984	0.0328498	0.994192
0.4375	0.125	-0.196534	0.0405352	0.99135
0.4375	0.15625	-0.184484	0.0414298	0.98901
0.4375	0.1875	-0.160556	0.0414598	0.98635
0.4375	0.21875	-0.141868	0.0391253	0.984481
0.4375	0.25	-0.127684	0.0411311	0.982457
0.4375	0.28125	-0.112863	0.0403865	0.980835
0.4375	0.3125	-0.0981973	0.0418781	0.979235
0.4375	0.34375	-0.0829916	0.0413284	0.977925
0.4375	0.375	-0.0682303	0.0426251	0.976787
0.4375	0.40625	-0.0532175	0.0422041	0.975847
0.4375	0.4375	-0.0387195	0.0436161	0.97518
0.4375	0.46875	-0.0238282	0.0433331	0.974628
0.4375	0.5	-0.00926974	0.0447754	0.974437
0.4375	0.53125	0.00565671	0.0444626	0.974284
0.4375	0.5625	0.0204725	0.0458577	0.974577
0.4375	0.59375	0.0355789	0.0454398	0.974821
0.4375	0.625	0.0508952	0.0467089	0.975596
0.4375	0.65625	0.0664196	0.0460263	0.976222
0.4375	0.6875	0.0823108	0.0470011	0.977471
0.4375	0.71875	0.0984405	0.045642	0.978439
0.4375	0.75	0.114873	0.0461784	0.980137
0.4375	0.78125	0.132998	0.0438378	0.98137
0.4375	0.8125	0.150856	0.0440999	0.983509
0.4375	0.84375	0.171959	0.0399514	0.984938
0.4375	0.875	0.180811	0.0377865	0.987323
0.4375	0.90625	0.200768	0.0286882	0.988493
0.4375	0.9375	0.176451	0.0199049	0.990263
0.4375	0.96875	0.245621	0.00241534	0.990095
0.4375	1	1	0	0.992285
0.46875	0	0	0	0.995823
0.46875	0.03125	-0.101488	0.0109726	0.99681
0.46875	0.0625	-0.169571	0.0214969	0.995069
0.46875	0.09375	-0.195679	0.0236431	0.993862
0.46875	0.125	-0.202757	0.0301379	0.990737
0.46875	0.15625	-0.179818	0.0265286	0.988599
0.46875	0.1875	-0.160183	0.027958	0.985857
0.46875	0.21875	-0.141661	0.025708	0.984066
0.46875	0.25	-0.127196	0.0268954	0.981973
0.46875	0.28125	-0.112588	0.0260063	0.980415
0.46875	0.3125	-0.0980693	0.0274263	0.978751
0.46875	0.34375	-0.0825863	0.0266006	0.977507
0.46875	0.375	-0.068008	0.0278397	0.976323
0.46875	0.40625	-0.0531485	0.0274339	0.975461
0.46875	0.4375	-0.0386715	0.0288699	0.974739
0.46875	0.46875	-0.023863	0.028681	0.974267
0.46875	0.5	-0.0092287	0.0302372	0.974009
0.46875	0.53125	0.00567026	0.0301945	0.973931
0.46875	0.5625	0.0206286	0.0318185	0.974137
0.46875	0.59375	0.0358089	0.0318157	0.974441
0.46875	0.625	0.0513434	0.0334117	0.975108
0.46875	0.65625	0.0670913	0.0332556	0.975768
0.46875	0.6875	0.0834569	0.0347219	0.976884
0.46875	0.71875	0.0999642	0.034019	0.977845
0.46875	0.75	0.117285	0.0352319	0.979379
0.46875	0.78125	0.135789	0.0335706	0.98054
0.46875	0.8125	0.155266	0.0348389	0.982461
0.46875	0.84375	0.177856	0.031463	0.98364
0.46875	0.875	0.191447	0.0324927	0.985911
0.46875	0.90625	0.207461	0.0240189	0.986415
0.46875	0.9375	0.167385	0.024755	0.98855
0.46875	0.96875	0.259593	0.0112527	0.987555
0.46875	1	1	0	0.988808
0.5	0	0	0	0.995428
0.5	0.03125	-0.108405	0.00063974	0.996232
0.5	0.0625	-0.176059	0.00924555	0.994682
0.5	0.09375	-0.202152	0.0114611	0.993474
0.5	0.125	-0.201248	0.0144163	0.99044
0.5	0.15625	-0.18213	0.0134288	0.988074
0.5	0.1875	-0.15898	0.0134098	0.985548
0.5	0.21875	-0.14114	0.0112682	0.983654
0.5	0.25	-0.128562	0.0125751	0.981646
0.5	0.28125	-0.113521	0.0115537	0.97997
0.5	0.3125	-0.0987643	0.012506	0.978386
0.5	0.34375	-0.083482	0.0117281	0.977035
0.5	0.375	-0.0691469	0.012892	0.975924
0.5	0.40625	-0.054345	0.0124546	0.974944
0.5	0.4375	-0.0399927	0.0137973	0.974301
0.5	0.46875	-0.0253077	0.0135989	0.973712
0.5	0.5	-0.0107913	0.0151244	0.973545
0.5	0.53125	0.00396333	0.0150955	0.973356
0.5	0.5625	0.0188102	0.0168192	0.973669
0.5	0.59375	0.0338968	0.01687	0.973868
0.5	0.625	0.0493215	0.0187844	0.974651
0.5	0.65625	0.0650668	0.0187555	0.975205
0.5	0.6875	0.0813362	0.0208167	0.976433
0.5	0.71875	0.0979527	0.0204079	0.977285
0.5	0.75	0.115133	0.0224528	0.978898
0.5	0.78125	0.133464	0.0212825	0.979949
0.5	0.8125	0.152569	0.0232757	0.981869
0.5	0.84375	0.174326	0.0210001	0.98302
0.5	0.875	0.187675	0.0219726	0.985031
0.5	0.90625	0.210221	0.0171856	0.986
0.5	0.9375	0.194964	0.0123146	0.987312
0.5	0.96875	0.273122	0.00162097	0.987493
0.5	1	1	0	0.989069
0.53125	0	0	0	0.995564
0.53125	0.03125	-0.119021	0.00493341	0.996193
0.53125	0.0625	-0.179752	0.0055648	0.995024
0.53125	0.09375	-0.199332	0.00157505	0.993585
0.53125	0.125	-0.203766	0.00315287	0.990513
0.53125	0.15625	-0.177746	-0.00040054	0.988336
0.53125	0.1875	-0.157675	0.000188793	0.985611
0.53125	0.21875	-0.140617	-0.00196063	0.983784
0.53125	0.25	-0.12742	-0.00154543	0.981699
0.53125	0.28125	-0.11243	-0.00291966	0.980052
0.53125	0.3125	-0.0981406	-0.00207122	0.978408
0.53125	0.34375	-0.0828137	-0.00297246	0.977109
0.53125	0.375	-0.0686547	-0.001962	0.975949
0.53125	0.40625	-0.0539783	-0.00241426	0.975033
0.53125	0.4375	-0.0397222	-0.00108364	0.974338
0.53125	0.46875	-0.0251489	-0.00112763	0.973823
0.53125	0.5	-0.0106304	0.000500335	0.973593
0.53125	0.53125	0.00399824	0.000824499	0.973479
0.53125	0.5625	0.0189237	0.00276248	0.973711
0.53125	0.59375	0.0339191	0.00332439	0.973979
0.53125	0.625	0.0494734	0.00556364	0.974665
0.53125	0.65625	0.0652103	0.00617331	0.975276
0.53125	0.6875	0.0817523	0.00869599	0.976397
0.53125	0.71875	0.098538	0.00908278	0.977273
0.53125	0.75	0.116317	0.0118719	0.978784
0.53125	0.78125	0.134988	0.0115957	0.97979
0.53125	0.8125	0.155603	0.0147337	0.981625
0.53125	0.84375	0.177977	0.0131994	0.982556
0.53125	0.875	0.196149	0.0172491	0.984636
0.53125	0.90625	0.213035	0.0121719	0.98483
0.53125	0.9375	0.177149	0.0195632	0.986864
0.53125	0.96875	0.289825	0.00917557	0.98538
0.53125	1	1	0	0.987062
0.5625	0	0	0	0.998055
0.5625	0.03125	-0.115144	-0.00144731	0.997411
0.5625	0.0625	-0.17041	-0.00787893	0.996027
0.5625	0.09375	-0.199902	-0.0115962	0.994195
0.5625	0.125	-0.201154	-0.0138931	0.991087
0.5625	0.15625	-0.179259	-0.0143624	0.988356
0.5625	0.1875	-0.156998	-0.0150728	0.985941
0.5625	0.21875	-0.139809	-0.0165991	0.983827
0.5625	0.25	-0.127781	-0.0169087	0.981852
0.5625	0.28125	-0.113098	-0.0179158	0.98005
0.5625	0.3125	-0.0987952	-0.0174791	0.978492
0.5625	0.34375	-0.0836889	-0.0181763	0.977048
0.5625	0.375	-0.0698214	-0.0173577	0.975957
0.5625	0.40625	-0.0553345	-0.0177396	0.974914
0.5625	0.4375	-0.0413464	-0.0165402	0.974287
0.5625	0.46875	-0.02703	-0.0165281	0.973657
0.5625	0.5	-0.0127572	-0.0149562	0.973509
0.5625	0.53125	0.00154793	-0.0145397	0.973296
0.5625	0.5625	0.0162916	-0.0125051	0.973631
0.5625	0.59375	0.0309521	-0.0117578	0.973816
0.5625	0.625	0.0463667	-0.00916006	0.974622
0.5625	0.65625	0.0618277	-0.00824197	0.975161
0.5625	0.6875	0.0781828	-0.00504457	0.976401
0.5625	0.71875	0.0947197	-0.00413759	0.977218
0.5625	0.75	0.112307	-0.000502171	0.978809
0.5625	0.78125	0.130579	0.000127139	0.979794
0.5625	0.8125	0.150533	0.00391744	0.981603
0.5625	0.84375	0.171703	0.00418209	0.982651
0.5625	0.875	0.18796	0.00758754	0.984398
0.5625	0.90625	0.209353	0.00736329	0.985316
0.5625	0.9375	0.202729	0.00486075	0.986116
0.5625	0.96875	0.293616	0.000812883	0.986736
0.5625	1	1	0	0.987591
0.59375	0	0	0	0.996995
0.59375	0.03125	-0.112445	-0.00386451	0.996833
0.59375	0.0625	-0.168953	-0.0142373	0.996663
0.59375	0.09375	-0.193686	-0.0222586	0.994634
0.59375	0.125	-0.200568	-0.0266613	0.991833
0.59375	0.15625	-0.177193	-0.0282573	0.989166
0.59375	0.1875	-0.15544	-0.0284756	0.98647
0.59375	0.21875	-0.138329	-0.0301325	0.984432
0.59375	0.25	-0.126063	-0.0311287	0.982413
0.59375	0.28125	-0.111793	-0.0325351	0.980605
0.59375	0.3125	-0.097818	-0.0323799	0.979003
0.59375	0.34375	-0.0827822	-0.03316	0.977599
0.59375	0.375	-0.0690015	-0.0325142	0.976471
0.59375	0.40625	-0.0546603	-0.0329236	0.97548
0.59375	0.4375	-0.040803	-0.0317706	0.974814
0.59375	0.46875	-0.0266496	-0.0315619	0.974249
0.59375	0.5	-0.0124658	-0.0299156	0.974048
0.59375	0.53125	0.00159813	-0.0290987	0.973909
0.59375	0.5625	0.0162877	-0.0269052	0.974174
0.59375	0.59375	0.0306504	-0.0255753	0.974439
0.59375	0.625	0.0460652	-0.0227102	0.975165
0.59375	0.65625	0.0612611	-0.0210407	0.975786
0.59375	0.6875	0.0777048	-0.0173992	0.976949
0.59375	0.71875	0.0941967	-0.0155575	0.977827
0.59375	0.75	0.11211	-0.0111134	0.979371
0.59375	0.78125	0.130731	-0.0094524	0.980339
0.59375	0.8125	0.151873	-0.00433331	0.982183
0.59375	0.84375	0.173284	-0.00331946	0.982994
0.59375	0.875	0.194563	0.00331779	0.985027
0.59375	0.90625	0.209454	0.00203948	0.98499
0.59375	0.9375	0.178165	0.0151367	0.986991
0.59375	0.96875	0.3139	0.00730291	0.98497
0.59375	1	1	0	0.987113
0.625	0	0	0	1.00167
0.625	0.03125	-0.0993685	-0.00324041	0.99968
0.625	0.0625	-0.145679	-0.0240958	0.998829
0.625	0.09375	-0.1871	-0.0355434	0.996322
0.625	0.125	-0.196486	-0.0448125	0.993122
0.625	0.15625	-0.177564	-0.0441862	0.989858
0.625	0.1875	-0.155374	-0.045048	0.987381
0.625	0.21875	-0.137331	-0.0451072	0.984955
0.625	0.25	-0.125075	-0.0469623	0.983031
0.625	0.28125	-0.111884	-0.0481053	0.981071
0.625	0.3125	-0.0984487	-0.0483167	0.979511
0.625	0.34375	-0.0836259	-0.0487645	0.977949
0.625	0.375	-0.0701485	-0.0483078	0.976854
0.625	0.40625	-0.0561986	-0.0486595	0.97574
0.625	0.4375	-0.0427946	-0.0477101	0.975106
0.625	0.46875	-0.0290636	-0.0474598	0.974441
0.625	0.5	-0.0152502	-0.0459413	0.974295
0.625	0.53125	-0.00168159	-0.0449847	0.974083
0.625	0.5625	0.0127599	-0.0427374	0.974436
0.625	0.59375	0.0265265	-0.0411151	0.974657
0.625	0.625	0.0417772	-0.0378859	0.975496
0.625	0.65625	0.0563027	-0.035738	0.976099
0.625	0.6875	0.0724997	-0.0313756	0.977383
0.625	0.71875	0.0882461	-0.0288276	0.978274
0.625	0.75	0.105831	-0.023543	0.979904
0.625	0.78125	0.123633	-0.0207826	0.980966
0.625	0.8125	0.14376	-0.0150541	0.982778
0.625	0.84375	0.163853	-0.0117576	0.983893
0.625	0.875	0.181688	-0.00601182	0.985506
0.625	0.90625	0.198646	-0.00110002	0.986507
0.625	0.9375	0.201856	-0.0021807	0.986811
0.625	0.96875	0.307616	0.000118181	0.987918
0.625	1	1	0	0.988071
0.65625	0	0	0	0.999468
0.65625	0.03125	-0.0810028	-0.013847	0.998641
0.65625	0.0625	-0.136987	-0.0335898	0.999244
0.65625	0.09375	-0.174248	-0.0463082	0.996684
0.65625	0.125	-0.192272	-0.05959	0.994422
0.65625	0.15625	-0.179876	-0.0603701	0.990946
0.65625	0.1875	-0.154805	-0.0599763	0.988299
0.65625	0.21875	-0.136002	-0.0593942	0.985932
0.65625	0.25	-0.123117	-0.0614418	0.984006
0.65625	0.28125	-0.110235	-0.0630643	0.982041
0.65625	0.3125	-0.0971572	-0.0639204	0.980497
0.65625	0.34375	-0.0827887	-0.0645416	0.978954
0.65625	0.375	-0.0689965	-0.064029	0.977852
0.65625	0.40625	-0.0550821	-0.0643907	0.976784
0.65625	0.4375	-0.041809	-0.0635181	0.976131
0.65625	0.46875	-0.0283091	-0.0630515	0.975525
0.65625	0.5	-0.0146918	-0.0615117	0.975333
0.65625	0.53125	-0.00152841	-0.0601192	0.975193
0.65625	0.5625	0.0126807	-0.0577726	0.975481
0.65625	0.59375	0.0258948	-0.0555719	0.975793
0.65625	0.625	0.0409301	-0.0521577	0.976565
0.65625	0.65625	0.0548935	-0.0491921	0.977278
0.65625	0.6875	0.0710062	-0.0444612	0.97851
0.65625	0.71875	0.0865167	-0.0408999	0.979509
0.65625	0.75	0.104331	-0.0348192	0.981138
0.65625	0.78125	0.122448	-0.030918	0.982229
0.65625	0.8125	0.143466	-0.0236163	0.984164
0.65625	0.84375	0.163502	-0.019457	0.985019
0.65625	0.875	0.186046	-0.0100976	0.987116
0.65625	0.90625	0.196753	-0.0067613	0.986927
0.65625	0.9375	0.172005	0.0116393	0.988924
0.65625	0.96875	0.332593	0.0055368	0.986297