TITLE = "SOLUTION_FIELD"
VARIABLES = "x" "y" "u" "v" "p"
ZONE N=9, E=8, F=FEPOINT, ET=TRIANGLE
0	0	1	0	4.10073
0.5	0	0	0	1.98125
1	0	0	0	0
0	0.5	1	0	1.86033
0.5	0.5	1.70382	0.00228534	0.844235
1	0.5	1.97537	-0.210814	0
0	1	1	0	2.20524
0.5	1	0	0	1.9553
1	1	0	0	0
1	2	4
2	5	4
4	5	7
5	6	8
7	5	8
2	3	5
8	6	9
5	3	6
