TITLE = "SOLUTION_FIELD"
VARIABLES = "x" "y" "u" "v" "p"
ZONE N=3524, E=6288, F=FEPOINT, ET=TRIANGLE
0	0	1	0	12.351
0	0.125	1	0	9.05588
0	0.25	1	0	7.0876
0	0.375	1	0	6.94748
0	0.5	1	0	6.94806
0	0.625	1	0	6.94875
0	0.75	1	0	6.86604
0	0.875	1	0	6.86589
0	1	1	0	6.85941
0	1.125	1	0	6.87216
0	1.25	1	0	6.87501
0	1.375	1	0	6.95423
0	1.5	1	0	6.96403
0	1.625	1	0	6.96927
0	1.75	1	0	7.10164
0	1.875	1	0	9.06182
0	2	1	0	12.3597
0.134719	0.997452	1.00277	0.000461426	6.87325
0.140364	1.64245	1.01669	-0.0874336	7.04849
0.145214	0.676299	1.01266	0.0298233	6.92731
0.146745	0.354912	1.0241	0.101922	7.07792
0.152802	1.31784	1.01172	-0.0294673	6.91276
0.15625	0	0	0	8.11324
0.15625	2	0	0	8.12626
0.170068	1.47591	1.00132	-0.0706328	6.87839
0.173092	1.15991	1.00777	-0.0197491	6.86472
0.175255	0.178876	1.35865	0.446725	7.00182
0.176566	0.832629	1.01003	0.022144	6.87
0.176886	1.81933	1.36069	-0.448629	6.99805
0.18057	0.518743	1.00589	0.0818062	6.87742
0.283702	0.990855	1.02539	0.00223511	6.8537
0.295159	0.675124	1.03512	0.0584631	6.88158
0.296372	1.65329	1.20167	-0.249581	7.10255
0.312069	0.325538	1.21716	0.264662	7.07991
0.312109	1.30797	1.03933	-0.0579491	6.88981
0.3125	0	0	0	6.40463
0.3125	2	0	0	6.39395
0.329213	1.47762	1.09055	-0.169111	6.88171
0.335546	1.14293	1.03616	-0.0309008	6.83874
0.340255	0.148595	0.888959	0.0778261	7.06127
0.349089	1.83902	0.948422	-0.0825889	7.07704
0.349638	0.840053	1.03793	0.0340329	6.83532
0.351863	0.508403	1.11854	0.174073	6.88892
0.448469	1.71263	1.19741	-0.186773	6.67188
0.45904	1.02781	1.0586	-0.00653824	6.82604
0.465438	1.56546	1.23524	-0.181267	6.83261
0.467691	0.696711	1.09573	0.0873291	6.83866
0.46875	0	0	0	6.69105
0.46875	2	0	0	6.58232
0.475702	1.38913	1.12736	-0.126053	6.82724
0.475754	0.210048	1.05214	0.10568	6.71924
0.476718	1.22027	1.08147	-0.0582531	6.81425
0.480928	0.377645	1.2468	0.197287	6.7863
0.498434	0.865135	1.07511	0.0371957	6.811
0.506598	0.538667	1.17482	0.149882	6.81424
0.522495	1.84848	0.769108	-0.0448997	6.82003
0.609679	1.12876	1.10688	-0.0361658	6.78566
0.612497	1.50274	1.22867	-0.156631	6.79349
0.615055	1.6879	1.12105	-0.136069	6.78454
0.61924	0.127331	0.57824	0.0135336	6.74124
0.625	0	0	0	6.64797
0.625	2	0	0	6.66548
0.628518	0.960903	1.10652	0.0112653	6.77529
0.635952	0.786309	1.13299	0.066028	6.7738
0.637323	1.31703	1.16044	-0.103956	6.7742
0.637855	0.285787	1.07259	0.102868	6.77523
0.639079	0.62707	1.1845	0.120655	6.76953
0.6466	0.448731	1.22656	0.157289	6.78033
0.673426	1.85471	0.654932	-0.0217426	6.73714
0.754545	1.19974	1.16768	-0.0613514	6.74629
0.757432	1.44853	1.23645	-0.127516	6.72993
0.762167	1.60761	1.18234	-0.122565	6.6933
0.772119	1.04773	1.15007	-0.0154525	6.73498
0.78125	0	0	0	6.6536
0.78125	2	0	0	6.6701
0.783034	0.541408	1.24128	0.126414	6.71472
0.783727	0.170626	0.696086	0.0269364	6.67058
0.785359	0.878427	1.16115	0.0369839	6.73681
0.794271	1.78848	0.833559	-0.0523193	6.66846
0.795355	0.71362	1.19971	0.0867932	6.72399
0.80018	0.351197	1.13748	0.0996231	6.67728
0.834554	1.32579	1.22584	-0.097154	6.70536
0.904279	1.6757	1.0466	-0.07448	6.66374
0.920511	0.482637	1.21772	0.102646	6.66596
0.921572	1.15661	1.20693	-0.0459379	6.69187
0.921773	0.980637	1.19341	0.00560355	6.69273
0.923415	1.50345	1.23768	-0.105936	6.67461
0.9375	0	0	0	6.62811
0.9375	2	0	0	6.57481
0.943661	0.632976	1.256	0.0947389	6.68135
0.943908	0.191598	0.70749	0.02677	6.63917
0.954092	0.808576	1.22485	0.0565385	6.67843
0.964039	1.84136	0.603595	-0.0135186	6.61835
0.966286	0.348859	1.06877	0.0748182	6.65788
0.984705	1.33311	1.25927	-0.0885739	6.66361
1.05146	1.66719	1.02813	-0.0578805	6.60407
1.08285	0.983109	1.23955	0.00418627	6.64924
1.08741	1.15584	1.25365	-0.0402099	6.64338
1.08877	0.482349	1.21572	0.0809644	6.60965
1.09375	0	0	0	6.56286
1.09375	2	0	0	6.58953
1.09738	0.131458	0.478761	0.00551791	6.5859
1.10055	0.657977	1.27331	0.0759982	6.62681
1.10476	0.297865	0.941764	0.0452274	6.59188
1.10553	1.49757	1.229	-0.0783039	6.61626
1.1157	0.820245	1.26202	0.0447738	6.63241
1.11636	1.31613	1.27407	-0.0725126	6.62152
1.13776	1.83131	0.592732	-0.0155454	6.598
1.21775	1.6696	0.981846	-0.0449527	6.56899
1.23575	1.39059	1.27291	-0.0681541	6.59084
1.24462	1.06053	1.28369	-0.0147526	6.59817
1.24546	0.202061	0.673127	0.0184189	6.57383
1.2456	1.22419	1.29337	-0.0490477	6.59573
1.24722	0.384929	1.07265	0.0514573	6.57192
1.25	0	0	0	6.55544
1.25	2	0	0	6.5364
1.25093	0.553897	1.25042	0.0669806	6.58519
1.25625	0.900032	1.28717	0.0228737	6.59472
1.25736	0.723167	1.29462	0.057146	6.58998
1.29342	1.52482	1.18469	-0.0573956	6.56643
1.3067	1.83041	0.571728	-0.00875384	6.54848
1.37906	1.34097	1.29832	-0.0552935	6.5505
1.38217	0.128582	0.433022	0.00864313	6.52525
1.38851	1.16516	1.31702	-0.0323533	6.55975
1.39647	0.296242	0.879295	0.0290713	6.52149
1.40025	0.802503	1.31789	0.0374542	6.55553
1.40211	1.66933	0.955431	-0.0311454	6.53074
1.40625	0	0	0	6.51958
1.40625	2	0	0	6.51114
1.40896	0.629885	1.28968	0.0535388	6.54246
1.40968	0.459964	1.15681	0.0465907	6.53334
1.41462	0.984399	1.31893	0.00277678	6.55516
1.44862	1.48737	1.21268	-0.0504445	6.53129
1.46835	1.8481	0.497112	-0.00461195	6.5119
1.52378	0.183013	0.583912	0.00711849	6.50275
1.526	1.11416	1.33977	-0.0198852	6.52623
1.53517	1.27972	1.32518	-0.0410096	6.51701
1.54027	0.863122	1.34081	0.0233429	6.52139
1.56115	0.708889	1.32332	0.0396642	6.51241
1.5625	0	0	0	6.47125
1.5625	2	0	0	6.4843
1.56263	1.72961	0.794951	-0.01824	6.49118
1.56385	0.53585	1.22706	0.0435331	6.50335
1.56673	0.35249	0.977427	0.0263866	6.50047
1.57727	1.58854	1.07069	-0.0322001	6.49691
1.59211	1.42623	1.2528	-0.0422863	6.49796
1.6092	0.987224	1.35477	0.00181402	6.50488
1.64931	1.84991	0.478792	-0.00492281	6.47993
1.66617	0.156305	0.494476	0.00239059	6.46675
1.67788	1.15808	1.35891	-0.0228607	6.49
1.70865	0.822625	1.36104	0.0240138	6.48129
1.71344	1.31846	1.32226	-0.0347128	6.47722
1.71357	0.636333	1.29868	0.0365157	6.47335
1.71526	0.455766	1.12665	0.0293079	6.46797
1.71875	0	0	0	6.45948
1.71875	2	0	0	6.45754
1.73193	1.501	1.17923	-0.0324158	6.46543
1.73284	1.67901	0.896146	-0.0188379	6.46152
1.7344	0.30044	0.846222	0.0154628	6.45604
1.76101	1.01111	1.37872	-0.00217886	6.47215
1.80857	1.84309	0.488015	-0.00319678	6.43873
1.837	0.166152	0.512429	0.00484387	6.4419
1.84902	1.19903	1.37099	-0.0224482	6.44903
1.85352	0.528191	1.2068	0.0275852	6.44571
1.864	1.385	1.28486	-0.0301024	6.44154
1.86442	0.882153	1.38505	0.0142962	6.44897
1.87436	0.696419	1.33912	0.0280379	6.44202
1.875	0	0	0	6.42495
1.875	2	0	0	6.42398
1.88763	1.55597	1.09599	-0.0236274	6.43123
1.89679	0.349637	0.939821	0.0153282	6.42604
1.89999	1.70423	0.822699	-0.013586	6.42988
1.90856	1.05177	1.39391	-0.0062356	6.43694
1.97607	1.84081	0.486933	-0.00373746	6.41568
1.99328	0.804398	1.38306	0.0184192	6.42252
1.99358	1.29157	1.34363	-0.0235552	6.41609
2.00893	0.505848	1.17634	0.0225783	6.40765
2.01028	0.168632	0.512445	0.00118614	6.40152
2.02935	0.962782	1.40881	0.00379132	6.41352
2.02938	1.45993	1.21486	-0.0227965	6.4099
2.03125	0	0	0	6.3948
2.03125	2	0	0	6.40056
2.05064	1.13923	1.40134	-0.0131495	6.41244
2.05738	1.64717	0.936413	-0.0144245	6.39407
2.058	0.665394	1.32204	0.0215306	6.40425
2.07109	0.344124	0.917556	0.0126565	6.40151
2.13124	1.82604	0.521125	-0.00301994	6.37915
2.14326	0.840675	1.40198	0.0131137	6.3881
2.15511	1.31795	1.33671	-0.0197859	6.38452
2.18482	0.200853	0.589567	0.00293669	6.37579
2.1875	0	0	0	6.37507
2.1875	2	0	0	6.36621
2.18809	1.50789	1.15028	-0.0178306	6.37465
2.18853	1.00164	1.42504	-0.000477657	6.38281
2.18954	0.541969	1.21337	0.0187789	6.37474
2.21023	1.15732	1.4063	-0.0115975	6.37574
2.21287	0.713796	1.35308	0.0170407	6.37665
2.22692	0.382206	0.975299	0.0124784	6.36561
2.22935	1.67322	0.872894	-0.00891985	6.36946
2.2951	1.84665	0.456005	-0.000374047	6.34943
2.30174	1.38799	1.27956	-0.0162938	6.35662
2.31428	0.870054	1.42197	0.00900489	6.35974
2.34121	0.12956	0.390181	0.000742967	6.33856
2.34358	0.664631	1.32676	0.0154817	6.35166
2.34375	0	0	0	6.3391
2.34375	2	0	0	6.33932
2.34442	1.22552	1.38904	-0.0130733	6.35353
2.34729	0.287496	0.784071	0.00579041	6.34405
2.35435	1.05032	1.43434	-0.00334915	6.35083
2.37066	0.491493	1.14638	0.013155	6.34451
2.37284	1.54107	1.10027	-0.0120478	6.3417
2.38058	1.71063	0.785263	-0.00548076	6.33546
2.45509	0.800566	1.40311	0.0091767	6.33013
2.45605	1.34434	1.32159	-0.0135785	6.32922
2.47689	0.356141	0.916897	0.00723311	6.31919
2.48123	1.84827	0.450369	-0.000836078	6.32354
2.4972	0.960503	1.44518	0.00210436	6.32762
2.5	0	0	0	6.32331
2.5	2	0	0	6.31322
2.50312	0.649412	1.31477	0.0134722	6.31977
2.50671	0.181622	0.531537	0.00346778	6.32217
2.50761	1.15211	1.42661	-0.00705297	6.32446
2.52249	1.66568	0.876779	-0.0057099	6.31102
2.54122	1.49151	1.16401	-0.0100658	6.31556
2.55542	0.494853	1.14508	0.00862269	6.314
2.61103	1.31941	1.33773	-0.00957271	6.30029
2.62003	0.812519	1.4169	0.00711497	6.30612
2.63163	0.32905	0.861505	0.00568515	6.28904
2.65236	1.79571	0.583727	-0.00224025	6.28942
2.65625	0	0	0	6.27883
2.65625	2	0	0	6.28625
2.66122	1.01394	1.45403	-0.000684289	6.2983
2.66251	0.634965	1.30442	0.00912957	6.29475
2.66697	1.18921	1.41498	-0.00583475	6.2989
2.66787	0.177529	0.513738	0.00107246	6.2874
2.67504	1.61415	0.969377	-0.00418899	6.28504
2.69979	1.44446	1.21725	-0.00750002	6.28568
2.72589	0.463011	1.09462	0.00451727	6.27814
2.76737	0.883195	1.43972	0.00282467	6.28115
2.78956	1.14012	1.43568	-0.00266031	6.27783
2.79845	0.73883	1.38027	0.00515236	6.2747
2.80586	0.144904	0.426544	-0.000355562	6.25976
2.80801	1.86661	0.394973	-4.15759e-05	6.25926
2.8125	0	0	0	6.26002
2.8125	2	0	0	6.25912
2.81526	1.3172	1.34487	-0.0047271	6.27122
2.81535	0.308322	0.817184	0.000252829	6.26169
2.81909	1.70393	0.790743	-0.000256072	6.25994
2.81918	0.588207	1.25198	0.00431677	6.26526
2.82601	1.52863	1.10846	-0.00288937	6.26399
2.85439	1.00078	1.45896	0.000230574	6.27361
2.90862	0.467317	1.101	0.000963037	6.25098
2.93414	1.16086	1.43154	-0.00114984	6.25575
2.94384	0.839783	1.43076	0.000661498	6.25585
2.95795	1.45079	1.20602	0.0017861	6.23917
2.96501	0.156422	0.457354	0.000598375	6.23029
2.96538	0.661801	1.32895	-0.000481712	6.24885
2.96875	0	0	0	6.23722
2.96875	2	0	0	6.23454
2.97122	1.80596	0.556321	0.00185618	6.23179
2.97576	1.61988	0.955968	0.00118411	6.23384
2.99644	0.324961	0.851942	-0.0031499	6.23237
2.99816	1.31187	1.34827	0.00244069	6.24857
3.01517	0.996886	1.46064	0.000361145	6.25128
3.07068	0.507203	1.15416	-0.00520214	6.21783
3.09552	1.16671	1.42711	0.00287998	6.23781
3.11787	1.69901	0.803808	0.00773108	6.20755
3.12056	0.658643	1.32003	-0.00825979	6.22873
3.125	0	0	0	6.21453
3.125	2	0	0	6.20434
3.13005	0.841788	1.43273	-0.00386567	6.2344
3.13067	1.50525	1.1419	0.00990938	6.21149
3.13591	0.195213	0.566429	-0.00273127	6.19925
3.13937	1.86259	0.408916	0.000390694	6.19426
3.14587	0.374763	0.945715	-0.00772061	6.20451
3.15542	1.32485	1.33375	0.0105074	6.22246
3.1599	1.02447	1.45599	0.00033268	6.2403
3.24992	0.691641	1.34419	-0.0156961	6.21562
3.25995	1.65312	0.897072	0.0152655	6.17992
3.26454	0.511113	1.16503	-0.0196509	6.19404
3.272	1.17952	1.41782	0.0122423	6.22505
3.27514	0.318667	0.84502	-0.0128752	6.17695
3.28125	0	0	0	6.16493
3.28125	2	0	0	6.18619
3.28844	0.995455	1.45042	-0.000482321	6.23117
3.30205	1.35848	1.30168	0.0209967	6.19983
3.30921	1.51543	1.12337	0.0238058	6.18812
3.31109	1.81796	0.540647	0.00394951	6.16542
3.31117	0.154318	0.464692	-0.00481024	6.1677
3.31566	0.827833	1.41514	-0.0136155	6.22564
3.40232	0.666488	1.31855	-0.0312615	6.19331
3.42603	0.34715	0.9157	-0.0280032	6.14242
3.42849	0.940637	1.43121	-0.00694962	6.23462
3.42944	1.10038	1.42584	0.013945	6.23073
3.4364	1.64814	0.925336	0.0285394	6.14167
3.4375	0	0	0	6.15014
3.4375	2	0	0	6.13977
3.44286	0.517119	1.17091	-0.0405452	6.16998
3.44422	1.26685	1.3585	0.032695	6.20929
3.45684	1.44561	1.21578	0.0443324	6.17367
3.48152	0.163887	0.505848	-0.00807302	6.11659
3.48497	1.83177	0.522372	0.0115523	6.12584
3.49795	0.801748	1.38881	-0.0335126	6.2257
3.57292	0.980463	1.40879	-0.00508751	6.25289
3.58054	0.298512	0.835751	-0.0410593	6.10928
3.58438	0.639146	1.28876	-0.066082	6.18559
3.58758	1.54139	1.10361	0.0665706	6.12431
3.58836	1.15655	1.38693	0.0394432	6.24116
3.59235	0.453323	1.09794	-0.0683016	6.12654
3.59375	0	0	0	6.10827
3.59375	2	0	0	6.10249
3.60783	1.34482	1.30048	0.0720846	6.19582
3.6105	1.70736	0.830516	0.0497435	6.10108
3.65166	0.156576	0.512517	-0.0151523	6.07128
3.65225	1.85846	0.465918	0.00915839	6.05785
3.65505	0.827866	1.36563	-0.0537919	6.25037
3.72794	1.47523	1.18289	0.111426	6.13208
3.73389	1.02612	1.35981	0.0121645	6.31147
3.73685	1.20748	1.33206	0.0757536	6.2528
3.74567	0.508261	1.1748	-0.119498	6.12984
3.74746	0.320686	0.926755	-0.0823965	6.0472
3.75	0	0	0	6.06019
3.75	2	0	0	6.09422
3.75088	0.682613	1.29378	-0.112381	6.21233
3.76069	1.62767	1.01042	0.0998682	6.06983
3.78808	1.34523	1.27059	0.132563	6.20335
3.80235	0.146807	0.535939	-0.0260174	6.03095
3.80368	1.80696	0.678014	0.0357346	6.00727
3.81059	0.863792	1.31656	-0.0698497	6.32402
3.87631	1.14028	1.27858	0.0891118	6.35863
3.89917	0.726364	1.25886	-0.169606	6.27886
3.89972	0.40809	1.09937	-0.174711	6.03814
3.90443	1.47153	1.2133	0.202082	6.10679
3.90625	0	0	0	5.97278
3.90625	2	0	0	6.00301
3.90712	0.572243	1.22254	-0.20591	6.14428
3.9161	0.998581	1.25345	-0.00382453	6.41001
3.91754	0.227758	0.81749	-0.0940786	5.92971
3.92604	1.65467	1.04371	0.163512	5.99255
3.93456	1.28877	1.24868	0.199331	6.28656
3.96952	1.83417	0.678717	0.0531539	5.89104
3.984	0.847639	1.20379	-0.143772	6.43458
4.04453	1.14797	1.1474	0.171845	6.49855
4.04521	0.328564	1.08161	-0.22153	5.92674
4.05626	0.67584	1.20294	-0.311261	6.29042
4.0625	0	0	0	6.02715
4.0625	2	0	0	5.89066
4.06485	1.51676	1.22246	0.328296	6.01285
4.06729	0.978327	1.09387	-0.0262744	6.59478
4.07213	0.497676	1.23045	-0.343399	6.0308
4.08052	0.1581	0.753551	-0.0476624	5.8335
4.08805	1.69618	1.09972	0.226362	5.84341
4.0933	1.32542	1.19202	0.358505	6.27289
4.12275	0.819009	1.06744	-0.272017	6.53451
4.13067	1.8568	0.741746	0.0664126	5.79563
4.16263	1.06622	0.951395	0.122464	6.70645
4.18187	0.935603	0.912495	-0.125219	6.7466
4.1911	1.19353	0.996226	0.365848	6.59431
4.20459	0.323445	1.25621	-0.352584	5.71781
4.21531	0.674872	1.13093	-0.537152	6.2874
4.21582	1.43341	1.24191	0.554866	6.07213
4.21875	0	0	0	5.68194
4.21875	2	0	0	5.70757
4.2231	1.598	1.29404	0.472628	5.7627
4.23105	0.827876	0.903458	-0.389342	6.69597
4.23973	0.512874	1.29394	-0.57497	5.91293
4.24757	1.00623	0.748923	0.0149188	6.89319
4.24795	0.149062	0.925728	-0.0861247	5.58164
4.2495	1.30685	1.0717	0.587795	6.33989
4.2571	1.10161	0.776435	0.265922	6.84405
4.25891	1.76858	1.21114	0.263035	5.50228
4.27365	0.913543	0.718633	-0.238335	6.87479
4.28834	0.761084	0.915516	-0.59096	6.53515
4.29769	1.22683	0.873502	0.586387	6.59829
4.31	1.16155	0.727549	0.473245	6.73968
4.31199	1.04482	0.577931	0.143324	6.99481
4.31412	0.972567	0.560472	-0.0892064	7.0178
4.31903	0.842651	0.695272	-0.477515	6.78807
4.33797	1.10416	0.55405	0.35097	6.95095
4.34156	1.50025	1.38786	0.746566	5.68491
4.34465	0.906188	0.514789	-0.321758	6.98666
4.34749	0.708372	0.95246	-0.78949	6.32525
4.35297	0.621667	1.16604	-0.8509	6.03084
4.35408	1.3787	1.16592	0.865164	6.02103
4.35632	1.28255	0.918111	0.801195	6.33801
4.35698	1.01235	0.411715	0.0446051	7.10513
4.35896	0.381898	1.48636	-0.625877	5.46977
4.36285	0.783571	0.720803	-0.688167	6.62349
4.36499	0.959163	0.394514	-0.148798	7.09845
4.37014	1.06266	0.394853	0.228725	7.0774
4.375	0	0	0	5.47567
4.375	2	0	0	5.76328
4.37648	1.20921	0.669375	0.69222	6.64614
4.37653	1.1502	0.517014	0.527153	6.87304
4.37849	0.519948	1.3971	-0.862528	5.62679
4.37952	0.220447	1.45108	-0.285757	5.19233
4.38264	0.839971	0.521567	-0.560718	6.83698
4.39067	1.64191	1.55907	0.6233	5.43207
4.392	0.884366	0.396659	-0.417914	6.98873
4.39331	0.994216	0.278022	-0.0216303	7.17597
4.39347	1.10322	0.368499	0.377354	7.02198
4.39355	0.923023	0.327671	-0.282476	7.08636
4.39742	1.03412	0.273062	0.126656	7.16604
4.40524	0.958676	0.248838	-0.151369	7.17301
4.41175	1.83697	1.31325	0.129746	5.16823
4.41301	0.743992	0.735182	-0.843439	6.38222
4.41468	0.793855	0.559491	-0.713061	6.62411
4.41488	1.06899	0.240431	0.25	7.14201
4.41872	1.17301	0.445272	0.611171	6.77306
4.41988	1.25233	0.705438	0.842318	6.40159
4.42057	1.13274	0.333801	0.471862	6.93853
4.42118	1.01332	0.178911	0.047429	7.23241
4.42149	1.31395	0.928998	0.955276	6.05615
4.42194	0.687173	0.929627	-0.957108	6.08789
4.42337	0.984546	0.171628	-0.0541169	7.23061
4.42458	0.864792	0.326552	-0.477146	6.94984
4.4262	0.830499	0.410051	-0.592699	6.7814
4.42651	0.932452	0.197731	-0.234279	7.16702
4.42865	0.901498	0.235127	-0.342398	7.07842
4.42901	1.03966	0.163187	0.135374	7.20972
4.43204	1.09836	0.223179	0.337876	7.08791
4.43408	0.961073	0.145716	-0.129055	7.22793
4.4346	1.20921	0.510976	0.720604	6.57563
4.44153	1.00037	0.110045	0.00134838	7.27554
4.44206	1.05897	0.137125	0.187173	7.23064
4.44623	1.0203	0.0980281	0.061445	7.28451
4.44723	0.943838	0.11772	-0.170572	7.23285
4.44808	0.981052	0.091969	-0.0557294	7.2909
4.44892	1.15033	0.276554	0.490525	6.89335
4.44918	0.88067	0.202884	-0.377304	7.02081
4.44952	1.12018	0.202526	0.380226	7.01643
4.45022	1.47458	1.48231	1.01427	5.29837
4.45096	1.38005	1.16027	1.06101	5.71747
4.45117	0.805664	0.40145	-0.642626	6.66457
4.45191	1.07806	0.125536	0.234273	7.17216
4.4523	0.922812	0.123083	-0.228703	7.1901
4.45244	1.03878	0.0884448	0.110947	7.27701
4.45252	0.769122	0.53187	-0.765903	6.44009
4.45397	0.845198	0.269769	-0.493233	6.87024
4.45529	0.963278	0.0789423	-0.101335	7.28965
4.45532	0.634694	1.10153	-1.0529	5.70668
4.45536	1.18113	0.344816	0.585373	6.74576
4.45801	0.901985	0.134669	-0.28145	7.13012
4.45946	1.09872	0.131033	0.279621	7.13506
4.45956	1.0002	0.0582889	0.000581566	7.32106
4.46129	1.05519	0.0750012	0.143013	7.248
4.46327	0.946229	0.0682085	-0.13393	7.26148
4.46387	1.23216	0.497462	0.748285	6.39089
4.46419	0.866723	0.181042	-0.379142	6.98954
4.4646	1.01872	0.0478726	0.0438378	7.33681
4.46485	0.5655	1.36154	-1.07704	5.44017
4.46491	1.27236	0.669295	0.88209	6.1729
4.46551	0.981381	0.0457059	-0.0425208	7.33925
4.4659	1.13245	0.17373	0.369056	7.00962
4.46657	0.729281	0.659353	-0.873169	6.18001
4.46804	1.03771	0.047083	0.0854175	7.32216
4.4694	0.961696	0.0441097	-0.0838467	7.32613
4.47041	1.06859	0.0615936	0.155663	7.27053
4.47051	0.931804	0.0613493	-0.153741	7.27157
4.47064	1.16181	0.229366	0.458222	6.81788
4.4716	0.916139	0.0743016	-0.192934	7.19676
4.47165	0.886474	0.116312	-0.28306	7.09349
4.47181	1.0841	0.073906	0.193277	7.20202
4.47286	1.11344	0.112794	0.277853	7.0917
4.47371	0.815228	0.287075	-0.533956	6.70751
4.47397	0.999966	0.0255176	2.02006e-05	7.35296
4.47433	0.835722	0.221488	-0.450472	6.80296
4.475	1.05076	0.0378856	0.0990897	7.3109
4.4756	1.20173	0.337878	0.598608	6.5906
4.47576	1.02617	0.0264622	0.0477468	7.35037
4.47581	0.948613	0.0363911	-0.0974714	7.30778
4.47611	0.97362	0.0257903	-0.0471436	7.35348
4.47633	0.460522	1.65215	-0.954077	5.03436
4.4771	0.901993	0.0760883	-0.209314	7.15721
4.47713	1.32085	0.867388	0.989192	5.85776
4.47716	1.01301	0.0213451	0.0225417	7.38757
4.47746	0.789417	0.363017	-0.622489	6.52494
4.47747	0.986999	0.0207558	-0.0219564	7.38788
4.47792	1.09811	0.0742442	0.206262	7.15569
4.47846	0.854288	0.157833	-0.361599	6.935
4.4789	1.14485	0.155049	0.35753	6.92564
4.47892	1.03737	0.024195	0.0624705	7.35207
4.47945	0.962669	0.0231518	-0.0608774	7.3545
4.47959	0.872411	0.115879	-0.288757	7.01043
4.48108	1.12692	0.110275	0.279038	7.00803
4.48156	1.17848	0.234793	0.472096	6.69951
4.48218	0.686082	0.825006	-0.973011	5.8902
4.48223	1.06339	0.0308407	0.102704	7.29473
4.48237	0.936497	0.0306761	-0.101794	7.30035
4.48366	1.07545	0.0360674	0.122791	7.2597
4.48367	0.92444	0.0360961	-0.122627	7.26306
4.48384	1.00481	0.0103805	0.00609771	7.39793
4.48391	0.995172	0.0102846	-0.005886	7.4006
4.48425	0.954309	0.018097	-0.0630349	7.36352
4.48445	1.01994	0.0112455	0.0252953	7.39547
4.48449	1.04548	0.0176993	0.0623361	7.35907
4.4846	0.979989	0.0110481	-0.0248826	7.3961
4.4848	1.02944	0.0124509	0.037429	7.39017
4.48484	1.05389	0.0204718	0.0748892	7.32765
4.48506	0.970388	0.012133	-0.0369165	7.39262
4.48521	0.945838	0.0198874	-0.0735438	7.32696
4.48535	0.761957	0.444281	-0.701033	6.34614
4.48581	0.912583	0.0413104	-0.139141	7.23851
4.48598	1.08719	0.0408249	0.138084	7.23557
4.48657	0.892055	0.0624812	-0.188725	7.1548
4.48671	1.01228	0.00802161	0.0133559	7.40652
4.48672	1.03803	0.0121669	0.0447227	7.37446
4.48682	0.987667	0.00788656	-0.0131254	7.40653
4.48698	0.961687	0.01177	-0.0441039	7.36934
4.48783	1.10734	0.0583476	0.180229	7.1632
4.48899	1.1604	0.153914	0.355214	6.87972
4.4892	0.999989	0.00451573	7.34111e-05	7.41196
4.4893	0.824784	0.192839	-0.411552	6.75021
4.48957	0.902738	0.041924	-0.142029	7.1906
4.48977	1.0968	0.0410255	0.139918	7.18954
4.48983	0.865755	0.0932466	-0.250658	7.02878
4.48989	1.02364	0.005754	0.0208332	7.39949
4.48995	0.976182	0.00570151	-0.0207027	7.39949
4.49003	0.880067	0.0687239	-0.203948	7.07201
4.49036	1.13434	0.0917221	0.248176	7.03257
4.4905	1.03334	0.00659756	0.0294886	7.38914
4.49065	0.966181	0.00644141	-0.0293887	7.38879
4.49078	0.841149	0.142734	-0.335948	6.87347
4.49093	1.1187	0.0643048	0.194706	7.07667
4.491	0.955657	0.00852709	-0.0399353	7.38089
4.49143	1.05892	0.0123526	0.0574315	7.36096
4.49146	1.06773	0.0160184	0.07115	7.31459
4.49149	1.04362	0.0077324	0.0377418	7.38322
4.49151	0.932133	0.0160582	-0.0708582	7.31156
4.49156	0.940857	0.0122376	-0.056909	7.36169
4.49158	1.24364	0.443095	0.695411	6.31447
4.49182	1.05023	0.00903232	0.0443755	7.37143
4.49186	1.02861	0.00463302	0.0217163	7.43716
4.49194	0.971129	0.0045889	-0.0215956	7.43768
4.49198	0.949291	0.00896504	-0.0441005	7.37096
4.4925	1.0383	0.00559057	0.0287297	7.41462
4.49256	1.00437	0.00207317	0.00284076	7.44269
4.49259	0.995607	0.00206751	-0.00272313	7.44176
4.49291	0.960847	0.00535527	-0.028232	7.42634
4.49291	1.00914	0.0018362	0.00563577	7.43273
4.49291	1.21934	0.333939	0.58424	6.4755
4.49294	0.990837	0.00182957	-0.00551841	7.43258
4.493	0.806054	0.237085	-0.468997	6.61936
4.49319	1.01441	0.0018023	0.00841667	7.42602
4.49326	0.985553	0.0017551	-0.00824223	7.42706
4.49371	1.0755	0.0167815	0.0726344	7.32109
4.49373	0.924404	0.0167804	-0.0724626	7.31972
4.49426	0.980568	0.00152655	-0.0103069	7.44765
4.4943	1.01936	0.00149879	0.0103099	7.44744
4.49451	1.1468	0.102091	0.26423	6.92357
4.49452	0.853839	0.100391	-0.2611	6.93303
4.49503	0.916621	0.0187563	-0.0798284	7.2628
4.49512	1.08325	0.0185229	0.0792492	7.26256
4.49546	0.999999	0.00045137	3.25709e-05	7.46452
4.4957	0.975691	0.00126306	-0.0103514	7.42244
4.4957	1.02424	0.00126692	0.0104012	7.4228
4.49609	0.965667	0.00190111	-0.0152398	7.40387
4.49611	0.897081	0.0313746	-0.114637	7.19574
4.49613	1.03432	0.00189547	0.0152615	7.40603
4.49622	1.18557	0.194662	0.411786	6.69797
4.49637	1.10161	0.0298667	0.109874	7.20228
4.49649	0.888309	0.0395202	-0.135323	7.12987
4.49659	1.02928	0.00132184	0.0109737	7.42421
4.49664	0.970703	0.00128011	-0.0107907	7.42544
4.49664	0.955248	0.00279473	-0.0207594	7.38396
4.49665	0.907986	0.0213096	-0.086552	7.23995
4.49676	1.09173	0.0209771	0.0854868	7.24684
4.49685	1.04524	0.00268458	0.0204	7.3931
4.49686	1.04	0.00209117	0.01655	7.40944
4.49705	1.28856	0.642131	0.849083	5.95169
4.49741	0.960439	0.00175871	-0.0143029	7.40664
4.49765	1.0502	0.00288344	0.0212724	7.39337
4.49768	0.950071	0.00277706	-0.0207549	7.39861
4.49769	0.944288	0.00409475	-0.0259836	7.35922
4.49771	1.05581	0.00409023	0.0261208	7.35665
4.49835	1.11033	0.0332698	0.118653	7.13981
4.49837	0.872383	0.0545052	-0.167475	7.06808
4.49837	1.06305	0.00450847	0.0304125	7.35935
4.49842	0.936931	0.00445774	-0.0300694	7.362
4.49845	1.12729	0.0540091	0.166354	7.06528
4.49881	1.17124	0.142331	0.329498	6.78305
4.49897	1.20068	0.234143	0.459979	6.54494
4.49916	1.07016	0.0061559	0.0344556	7.32745
4.49918	0.929809	0.00611062	-0.034278	7.33102
4.49968	0.862932	0.0652125	-0.188081	7.00346
4.4998	1.1371	0.0650809	0.187855	7.00454
4.5	1	0	0	7.51841
4.50003	0.994764	0	0	7.4472
4.50003	1.00524	0	0	7.44614
4.50011	0.989529	0	0	7.4929
4.50011	1.01047	0	0	7.49291
4.50025	0.984295	0	0	7.46241
4.50025	1.01571	0	0	7.46301
4.50028	0.782953	0.290062	-0.52665	6.47034
4.50044	0.979062	0	0	7.4732
4.50044	1.02094	0	0	7.47154
4.50048	1.07646	0.00647413	0.035061	7.29754
4.50048	0.923533	0.00644076	-0.0349172	7.29954
4.50069	0.973832	0	0	7.46792
4.50069	1.02617	0	0	7.46899
4.50099	0.968605	0	0	7.4668
4.50099	1.0314	0	0	7.46414
4.50114	0.880918	0.0348134	-0.119707	7.12103
4.5012	0.820287	0.155445	-0.345465	6.73346
4.50134	0.963381	0	0	7.45805
4.50134	1.03662	0	0	7.45284
4.50136	1.11846	0.0337066	0.11651	7.12609
4.50159	1.10448	0.0201562	0.0788435	7.19793
4.50161	0.832534	0.120968	-0.289626	6.82159
4.5017	0.912991	0.00861661	-0.0434313	7.27114
4.50172	0.91827	0.00642773	-0.0346919	7.30747
4.50175	0.958161	0	0	7.44948
4.50175	1.04184	0	0	7.44355
4.50176	1.08173	0.00639397	0.0345336	7.30557
4.50176	0.891878	0.022708	-0.0862178	7.17796
4.50191	1.08701	0.00833316	0.0420192	7.26917
4.50209	0.896939	0.0181156	-0.0715509	7.22836
4.50222	0.952946	0	0	7.43069
4.50222	1.04705	0	0	7.42659
4.50262	1.09776	0.0128049	0.056877	7.22201
4.50273	0.902568	0.0122615	-0.0551075	7.22346
4.50274	0.947736	0	0	7.42491
4.50274	1.05226	0	0	7.42497
4.50277	1.15657	0.0907954	0.235686	6.87251
4.50331	0.942531	0	0	7.38531
4.50331	1.05747	0	0	7.386
4.50343	0.907923	0.00799544	-0.0394573	7.25617
4.50345	1.09223	0.0080965	0.0397115	7.24688
4.50351	0.740533	0.469297	-0.708104	6.13653
4.50375	0.845078	0.0831556	-0.219894	6.89286
4.50394	0.937333	0	0	7.44196
4.50394	1.06267	0	0	7.4414
4.50463	0.932142	0	0	7.36359
4.50463	1.06786	0	0	7.36453
4.50512	1.14381	0.0567846	0.165961	6.97913
4.50515	0.856216	0.0566228	-0.164931	6.98521
4.50536	0.926958	0	0	7.36065
4.50536	1.07304	0	0	7.3613
4.50585	0.866922	0.0382006	-0.12212	7.02701
4.50597	1.10201	0.00864435	0.0387269	7.19639
4.506	1.13308	0.0378895	0.121151	7.02728
4.50616	0.921783	0	0	7.3406
4.50616	1.07822	0	0	7.34037
4.5062	1.12569	0.0281715	0.0964308	7.09847
4.50622	1.10746	0.0114059	0.0484907	7.20075
4.50625	0.874144	0.0280513	-0.0961602	7.09982
4.50628	0.898424	0.00790182	-0.0351925	7.20837
4.50636	0.88707	0.0150448	-0.0603648	7.16422
4.50675	0.893101	0.00998597	-0.0425485	7.17123
4.5069	1.1131	0.0140032	0.0561988	7.15293
4.507	0.916616	0	0	7.31893
4.507	1.08338	0	0	7.3166
4.50758	0.799644	0.191573	-0.390589	6.56211
4.50779	0.812242	0.149081	-0.327357	6.67382
4.5079	0.911458	0	0	7.29549
4.5079	1.08854	0	0	7.30027
4.50882	1.18933	0.149685	0.326357	6.67639
4.50886	0.906309	0	0	7.29901
4.50886	1.09369	0	0	7.30236
4.50886	1.26224	0.459722	0.695738	6.09125
4.5089	0.880624	0.0141872	-0.0537183	7.11764
4.50893	0.712178	0.59538	-0.806813	5.92503
4.50901	1.11938	0.0139314	0.0528425	7.11601
4.50918	1.16638	0.0858827	0.217968	6.8206
4.50929	0.763099	0.332181	-0.561754	6.29502
4.50981	1.17758	0.111482	0.262643	6.74198
4.50986	0.901171	0	0	7.26735
4.50986	1.09883	0	0	7.27221
4.50995	1.35339	0.962869	1.02417	5.45256
4.51025	1.21075	0.216653	0.419778	6.50242
4.51041	1.14966	0.0476645	0.138199	6.95611
4.5106	0.86281	0.0280334	-0.0912234	7.02679
4.51082	0.834711	0.0763758	-0.196775	6.83742
4.51093	0.896044	0	0	7.24684
4.51093	1.10396	0	0	7.23078
4.51105	0.851089	0.0439628	-0.128397	6.95669
4.5112	1.13729	0.0262402	0.0858122	7.03114
4.51149	0.857208	0.0330419	-0.10101	6.99184
4.51163	1.14321	0.0329741	0.101535	6.97475
4.51175	0.649497	0.939537	-1.01527	5.49396
4.51175	1.12531	0.0113379	0.0429435	7.10919
4.51177	0.8746	0.0113022	-0.0428102	7.11054
4.51183	0.823555	0.0987338	-0.236776	6.73522
4.51196	0.868769	0.0165655	-0.0584015	7.06899
4.51199	1.13117	0.0166224	0.0582282	7.06465
4.51204	0.890928	0	0	7.22264
4.51204	1.10907	0	0	7.20291
4.51238	1.15731	0.0535824	0.14843	6.88996
4.51292	0.84362	0.0495887	-0.138603	6.89823
4.51321	0.885825	0	0	7.1763
4.51321	1.11418	0	0	7.1836
4.51346	0.331855	1.86853	-0.715867	4.88143
4.51373	1.24122	0.329331	0.551398	6.22868
4.51439	1.40887	1.2604	1.11531	5.21423
4.51443	0.880733	0	0	7.14815
4.51443	1.11927	0	0	7.14569
4.51527	0.860923	0.0147745	-0.049171	7.00002
4.51563	1.22465	0.244607	0.449854	6.34554
4.51569	0.789887	0.186001	-0.36846	6.50858
4.51571	0.875655	0	0	7.15878
4.51571	1.12434	0	0	7.15751
4.5158	1.14035	0.0142974	0.0481483	7.00583
4.5162	0.855463	0.0181535	-0.0582026	6.98329
4.51628	1.146	0.0200503	0.0631882	6.98791
4.51661	1.19833	0.139566	0.299122	6.58935
4.51684	1.16328	0.0463155	0.126192	6.85662
4.51687	1.1708	0.0622155	0.15963	6.80227
4.517	0.777341	0.228621	-0.424994	6.37739
4.517	1.15132	0.0252328	0.0754293	6.92742
4.51704	0.87059	0	0	7.0908
4.51704	1.12941	0	0	7.09141
4.51731	0.849942	0.0217383	-0.0668821	6.94597
4.5174	0.837469	0.0424007	-0.116344	6.86094
4.51752	0.829788	0.0577296	-0.149565	6.81698
4.51757	0.811603	0.103428	-0.236903	6.69043
4.51813	1.18676	0.0964799	0.222606	6.65484
4.51842	0.86554	0	0	7.07549
4.51842	1.13446	0	0	7.05305
4.51942	1.17786	0.0666778	0.164994	6.74688
4.51944	1.15651	0.0231994	0.0683133	6.90029
4.5195	0.844332	0.0215631	-0.0641535	6.90735
4.51963	0.801631	0.123685	-0.266816	6.57153
4.51985	0.860504	0	0	7.05296
4.51985	1.1395	0	0	7.05857
4.52057	0.822246	0.0604564	-0.150831	6.73435
4.52094	1.31303	0.690596	0.86423	5.7008
4.52134	0.855484	0	0	7.01199
4.52134	1.14452	0	0	7.01021
4.52181	1.70472	1.882	0.605575	4.80383
4.52207	1.16625	0.0290549	0.0798768	6.82922
4.52208	1.20819	0.143735	0.295415	6.50558
4.52215	1.28357	0.506045	0.711601	5.90775
4.52227	0.834278	0.0271326	-0.0748932	6.83523
4.52238	1.16111	0.0182548	0.0534688	6.88381
4.52239	0.839577	0.0170694	-0.0501113	6.89717
4.52288	0.85048	0	0	6.97683
4.52288	1.14952	0	0	6.9577
4.52367	1.17075	0.0302485	0.0815845	6.79435
4.52381	0.82975	0.028525	-0.0772389	6.80272
4.52386	1.56379	1.80677	0.977226	4.69457
4.5243	0.750631	0.309503	-0.512275	6.15269
4.52447	0.845492	0	0	6.9205
4.52447	1.15451	0	0	6.92785
4.5245	0.815187	0.0588685	-0.140596	6.70379
4.52464	1.18374	0.0552049	0.133773	6.71907
4.52503	0.794245	0.118777	-0.248717	6.52264
4.52513	1.19239	0.0760366	0.174222	6.63883
4.52516	0.765869	0.231551	-0.413837	6.29105
4.52545	1.17527	0.0309993	0.0813929	6.7474