TITLE = "SOLUTION_FIELD"
VARIABLES = "x" "y" "u" "v" "p"
ZONE N=4225, E=8192, F=FEPOINT, ET=TRIANGLE
0	0	0	0	1.00507
0	0.015625	0	0	1.00507
0	0.03125	0	0	1.00495
0	0.046875	0	0	1.00507
0	0.0625	0	0	1.00494
0	0.078125	0	0	1.00514
0	0.09375	0	0	1.0051
0	0.109375	0	0	1.00533
0	0.125	0	0	1.00543
0	0.140625	0	0	1.00562
0	0.15625	0	0	1.00595
0	0.171875	0	0	1.00601
0	0.1875	0	0	1.00659
0	0.203125	0	0	1.0064
0	0.21875	0	0	1.00719
0	0.234375	0	0	1.00662
0	0.25	0	0	1.00749
0	0.265625	0	0	1.00645
0	0.28125	0	0	1.00721
0	0.296875	0	0	1.00569
0	0.3125	0	0	1.00616
0	0.328125	0	0	1.00424
0	0.34375	0	0	1.0043
0	0.359375	0	0	1.00215
0	0.375	0	0	1.00178
0	0.390625	0	0	0.999618
0	0.40625	0	0	0.998861
0	0.421875	0	0	0.996921
0	0.4375	0	0	0.995884
0	0.453125	0	0	0.994355
0	0.46875	0	0	0.993166
0	0.484375	0	0	0.992172
0	0.5	0	0	0.990952
0	0.515625	0	0	0.99054
0	0.53125	0	0	0.989386
0	0.546875	0	0	0.989531
0	0.5625	0	0	0.988509
0	0.578125	0	0	0.989125
0	0.59375	0	0	0.988273
0	0.609375	0	0	0.98923
0	0.625	0	0	0.98856
0	0.640625	0	0	0.989711
0	0.65625	0	0	0.989217
0	0.671875	0	0	0.990418
0	0.6875	0	0	0.990085
0	0.703125	0	0	0.991218
0	0.71875	0	0	0.991023
0	0.734375	0	0	0.99201
0	0.75	0	0	0.991925
0	0.765625	0	0	0.99273
0	0.78125	0	0	0.992731
0	0.796875	0	0	0.993351
0	0.8125	0	0	0.993418
0	0.828125	0	0	0.993875
0	0.84375	0	0	0.994035
0	0.859375	0	0	0.994337
0	0.875	0	0	0.994775
0	0.890625	0	0	0.99481
0	0.90625	0	0	0.996045
0	0.921875	0	0	0.995073
0	0.9375	0	0	0.997602
0	0.953125	0	0	0.99591
0	0.96875	0	0	1.00107
0	0.984375	0	0	0.980766
0	1	1	0	0.982301
0.015625	0	0	0	1.00506
0.015625	0.015625	0.000262795	-0.000259207	1.00507
0.015625	0.03125	0.00025592	-0.000936405	1.00505
0.015625	0.046875	0.000607372	-0.0017846	1.0051
0.015625	0.0625	0.000352763	-0.00296579	1.00508
0.015625	0.078125	0.000615402	-0.00384266	1.00519
0.015625	0.09375	0.00028311	-0.00500653	1.0052
0.015625	0.109375	0.000361745	-0.00542647	1.00537
0.015625	0.125	6.44848e-05	-0.00611956	1.00545
0.015625	0.140625	-0.000189901	-0.00561056	1.00563
0.015625	0.15625	-0.00032734	-0.0052827	1.00581
0.015625	0.171875	-0.00105987	-0.00338528	1.00597
0.015625	0.1875	-0.000875238	-0.00144876	1.00624
0.015625	0.203125	-0.0021654	0.00212487	1.00627
0.015625	0.21875	-0.00149815	0.00611661	1.00661
0.015625	0.234375	-0.00330728	0.0113082	1.0064
0.015625	0.25	-0.00207077	0.0174846	1.0067
0.015625	0.265625	-0.00422659	0.0238246	1.00615
0.015625	0.28125	-0.00246798	0.0319126	1.00628
0.015625	0.296875	-0.00469886	0.038614	1.00535
0.015625	0.3125	-0.00260446	0.0479736	1.00518
0.015625	0.328125	-0.0046124	0.054137	1.00391
0.015625	0.34375	-0.00245264	0.0638944	1.00336
0.015625	0.359375	-0.0039899	0.0687238	1.0019
0.015625	0.375	-0.00204021	0.0779433	1.00097
0.015625	0.390625	-0.00295517	0.0808914	0.999473
0.015625	0.40625	-0.00143429	0.0887311	0.998253
0.015625	0.421875	-0.00167778	0.0895481	0.996906
0.015625	0.4375	-0.000720333	0.0953668	0.995528
0.015625	0.453125	-0.000326233	0.0940728	0.994467
0.015625	0.46875	1.63144e-05	0.0974828	0.993082
0.015625	0.484375	0.000957842	0.0943033	0.992389
0.015625	0.5	0.000701662	0.0951802	0.991134
0.015625	0.515625	0.00206708	0.0904772	0.99083
0.015625	0.53125	0.0012775	0.0889423	0.989803
0.015625	0.546875	0.0029261	0.0831589	0.989855
0.015625	0.5625	0.00170243	0.0795441	0.989112
0.015625	0.578125	0.00348775	0.0731634	0.989448
0.015625	0.59375	0.00195266	0.0679642	0.988998
0.015625	0.609375	0.00373288	0.0614736	0.98952
0.015625	0.625	0.00202383	0.055288	0.989339
0.015625	0.640625	0.00367359	0.0491385	0.989948
0.015625	0.65625	0.00193237	0.0425931	0.989983
0.015625	0.671875	0.00335597	0.0371523	0.990593
0.015625	0.6875	0.00171396	0.0308216	0.990783
0.015625	0.703125	0.00285647	0.0263309	0.991334
0.015625	0.71875	0.00141721	0.0206644	0.991615
0.015625	0.734375	0.00226828	0.0172185	0.992076
0.015625	0.75	0.00109352	0.0124928	0.992394
0.015625	0.765625	0.00168144	0.0100502	0.992761
0.015625	0.78125	0.000786792	0.00636167	0.993078
0.015625	0.796875	0.00116426	0.00477795	0.993362
0.015625	0.8125	0.000523153	0.002087	0.993661
0.015625	0.828125	0.000721574	0.00116964	0.99387
0.015625	0.84375	0.000259973	-0.00050521	0.994181
0.015625	0.859375	0.000100509	-0.000761739	0.994278
0.015625	0.875	-0.000287458	-0.000655586	0.994737
0.015625	0.890625	-0.00163979	0.000719274	0.994504
0.015625	0.90625	-0.00209684	0.00571287	0.995396
0.015625	0.921875	-0.00653387	0.0121739	0.994188
0.015625	0.9375	-0.0052128	0.0281542	0.995349
0.015625	0.953125	-0.0129989	0.0465424	0.990907
0.015625	0.96875	-0.0278456	0.0818994	0.990277
0.015625	0.984375	0.100459	0.0402902	0.979261
0.015625	1	1	0	0.983837
0.03125	0	0	0	1.00518
0.03125	0.015625	0.000928577	-0.000253479	1.00508
0.03125	0.03125	0.00145625	-0.00144159	1.00507
0.03125	0.046875	0.00186575	-0.00291713	1.00507
0.03125	0.0625	0.00182469	-0.00443002	1.0051
0.03125	0.078125	0.00179458	-0.00603641	1.00514
0.03125	0.09375	0.00131007	-0.0070292	1.00522
0.03125	0.109375	0.000887766	-0.0079994	1.0053
0.03125	0.125	-4.44707e-05	-0.00770262	1.00544
0.03125	0.140625	-0.000926187	-0.00727453	1.00558
0.03125	0.15625	-0.00227515	-0.00495705	1.00578
0.03125	0.171875	-0.00364049	-0.00239593	1.00595
0.03125	0.1875	-0.00520957	0.00246088	1.00617
0.03125	0.203125	-0.00694903	0.00767086	1.00632
0.03125	0.21875	-0.00839494	0.0151566	1.00649
0.03125	0.234375	-0.0102617	0.0231295	1.00653
0.03125	0.25	-0.0112237	0.0328187	1.00653
0.03125	0.265625	-0.0128881	0.0432063	1.00634
0.03125	0.28125	-0.0131383	0.054249	1.00607
0.03125	0.296875	-0.0142714	0.0663156	1.00556
0.03125	0.3125	-0.0137892	0.077643	1.00493
0.03125	0.328125	-0.0141492	0.0904202	1.00407
0.03125	0.34375	-0.0130869	0.100964	1.00311
0.03125	0.359375	-0.0125785	0.113418	1.00195
0.03125	0.375	-0.0111668	0.122272	1.00073
0.03125	0.390625	-0.00984865	0.133441	0.999387
0.03125	0.40625	-0.00831004	0.139946	0.998049
0.03125	0.421875	-0.00635862	0.149019	0.996671
0.03125	0.4375	-0.00486131	0.152778	0.995374
0.03125	0.453125	-0.00251739	0.15914	0.994102
0.03125	0.46875	-0.00116819	0.159995	0.992986
0.03125	0.484375	0.00130989	0.163243	0.991934
0.03125	0.5	0.00245039	0.161236	0.991095
0.03125	0.515625	0.00481756	0.161193	0.990336
0.03125	0.53125	0.00571421	0.156533	0.98982
0.03125	0.546875	0.00775594	0.153264	0.989376
0.03125	0.5625	0.00838362	0.146311	0.989179
0.03125	0.578125	0.00992807	0.140134	0.989029
0.03125	0.59375	0.010267	0.131392	0.989104
0.03125	0.609375	0.0111995	0.122882	0.989197
0.03125	0.625	0.0112413	0.112996	0.98947
0.03125	0.640625	0.011522	0.102941	0.989736
0.03125	0.65625	0.0112812	0.0926648	0.99012
0.03125	0.671875	0.010959	0.0819805	0.990491
0.03125	0.6875	0.0104816	0.0720909	0.990906
0.03125	0.703125	0.00969062	0.0616869	0.991323
0.03125	0.71875	0.00905278	0.0528663	0.991711
0.03125	0.734375	0.00798379	0.043502	0.992127
0.03125	0.75	0.00727697	0.0362184	0.992459
0.03125	0.765625	0.00613084	0.0283929	0.992842
0.03125	0.78125	0.00543918	0.0228487	0.993116
0.03125	0.796875	0.00438084	0.0167607	0.993444
0.03125	0.8125	0.00373676	0.0129459	0.993675
0.03125	0.828125	0.00280618	0.00856379	0.99394
0.03125	0.84375	0.00200976	0.00650102	0.994159
0.03125	0.859375	0.000762038	0.00391353	0.994368
0.03125	0.875	-0.00103759	0.00439206	0.994633
0.03125	0.890625	-0.0042946	0.00472359	0.994793
0.03125	0.90625	-0.00866309	0.0103636	0.995208
0.03125	0.921875	-0.0170928	0.0165945	0.995145
0.03125	0.9375	-0.0234986	0.0312274	0.996081
0.03125	0.953125	-0.0373496	0.043692	0.994527
0.03125	0.96875	-0.0169595	0.0435461	0.997604
0.03125	0.984375	0.120467	0.0266234	0.999035
0.03125	1	1	0	1.00558
0.046875	0	0	0	1.00506
0.046875	0.015625	0.00175656	-0.000570952	1.00504
0.046875	0.03125	0.00290773	-0.001772	1.00506
0.046875	0.046875	0.00340225	-0.003276	1.00506
0.046875	0.0625	0.00344884	-0.00496903	1.00509
0.046875	0.078125	0.00297722	-0.00618706	1.00514
0.046875	0.09375	0.00219439	-0.00723316	1.00519
0.046875	0.109375	0.000838235	-0.00715323	1.00528
0.046875	0.125	-0.000738899	-0.00660643	1.00538
0.046875	0.140625	-0.00299697	-0.00435193	1.00552
0.046875	0.15625	-0.00530814	-0.00139414	1.00568
0.046875	0.171875	-0.00830375	0.00366309	1.00585
0.046875	0.1875	-0.0110619	0.00955194	1.00604
0.046875	0.203125	-0.0143778	0.0176125	1.00617
0.046875	0.21875	-0.017085	0.0264863	1.00631
0.046875	0.234375	-0.0201596	0.0372458	1.00631
0.046875	0.25	-0.0222684	0.0486616	1.00631
0.046875	0.265625	-0.0245675	0.0613802	1.00605
0.046875	0.28125	-0.0256646	0.0745184	1.00578
0.046875	0.296875	-0.0268225	0.0881891	1.00516
0.046875	0.3125	-0.0267294	0.102056	1.00457
0.046875	0.328125	-0.0266161	0.115597	1.00359
0.046875	0.34375	-0.0253788	0.129216	1.00268
0.046875	0.359375	-0.0240856	0.141632	1.00139
0.046875	0.375	-0.0218987	0.154173	1.00024
0.046875	0.390625	-0.0196667	0.164651	0.998784
0.046875	0.40625	-0.01679	0.175463	0.997523
0.046875	0.421875	-0.0139214	0.18341	0.996063
0.046875	0.4375	-0.0106224	0.192007	0.994823
0.046875	0.453125	-0.00741358	0.197039	0.993526
0.046875	0.46875	-0.00394076	0.203047	0.992428
0.046875	0.484375	-0.000649345	0.204957	0.991416
0.046875	0.5	0.00276985	0.208076	0.990552
0.046875	0.515625	0.0059271	0.206805	0.989895
0.046875	0.53125	0.0090764	0.206803	0.989313
0.046875	0.546875	0.0119106	0.202424	0.989027
0.046875	0.5625	0.0145751	0.199165	0.988732
0.046875	0.578125	0.0169132	0.191887	0.988785
0.046875	0.59375	0.0188817	0.185414	0.988743
0.046875	0.609375	0.0205688	0.175608	0.989066
0.046875	0.625	0.0216581	0.16623	0.989214
0.046875	0.640625	0.0225803	0.154473	0.989715
0.046875	0.65625	0.022682	0.142837	0.98998
0.046875	0.671875	0.0228047	0.129934	0.990561
0.046875	0.6875	0.0219383	0.117001	0.990878
0.046875	0.703125	0.0213368	0.103939	0.99145
0.046875	0.71875	0.0196771	0.0908551	0.991773
0.046875	0.734375	0.018533	0.0786569	0.992273
0.046875	0.75	0.0163823	0.0665295	0.992578
0.046875	0.765625	0.014935	0.0560479	0.992975
0.046875	0.78125	0.0126385	0.0457435	0.993256
0.046875	0.796875	0.0110995	0.0375045	0.993546
0.046875	0.8125	0.00891377	0.0295691	0.993808
0.046875	0.828125	0.00727832	0.0237967	0.993997
0.046875	0.84375	0.00504494	0.0186118	0.994264
0.046875	0.859375	0.00254306	0.0155617	0.994353
0.046875	0.875	-0.00105913	0.0138731	0.994691
0.046875	0.890625	-0.00669104	0.014555	0.994645
0.046875	0.90625	-0.0144286	0.0182095	0.995117
0.046875	0.921875	-0.0257901	0.0251064	0.99474
0.046875	0.9375	-0.0374337	0.036579	0.994958
0.046875	0.953125	-0.0465522	0.0504554	0.993465
0.046875	0.96875	-0.0307425	0.0616112	0.991715
0.046875	0.984375	0.201296	0.0297749	0.983703
0.046875	1	1	0	0.995445
0.0625	0	0	0	1.00516
0.0625	0.015625	0.00282268	-0.000304283	1.00505
0.0625	0.03125	0.00428965	-0.00158892	1.00503
0.0625	0.046875	0.00504911	-0.00304667	1.00503
0.0625	0.0625	0.00473753	-0.00429996	1.00504
0.0625	0.078125	0.00398987	-0.00529453	1.00508
0.0625	0.09375	0.0022628	-0.00532812	1.00513
0.0625	0.109375	0.000199988	-0.00475503	1.00521
0.0625	0.125	-0.00284938	-0.00256589	1.00531
0.0625	0.140625	-0.00615155	0.000497126	1.00544
0.0625	0.15625	-0.0102977	0.00563674	1.0056
0.0625	0.171875	-0.0145215	0.0117808	1.00575
0.0625	0.1875	-0.0192084	0.0201565	1.00594
0.0625	0.203125	-0.0237181	0.0294866	1.00605
0.0625	0.21875	-0.0281529	0.040851	1.00617
0.0625	0.234375	-0.0321598	0.0529475	1.00616
0.0625	0.25	-0.0355521	0.0665674	1.00608
0.0625	0.265625	-0.0383587	0.0805905	1.00582
0.0625	0.28125	-0.0401509	0.0954201	1.00542
0.0625	0.296875	-0.0413339	0.110312	1.00484
0.0625	0.3125	-0.0413179	0.125224	1.00405
0.0625	0.328125	-0.0407821	0.139927	1.00314
0.0625	0.34375	-0.0390781	0.153917	1.00199
0.0625	0.359375	-0.036994	0.167539	1.00081
0.0625	0.375	-0.0339378	0.179832	0.99941
0.0625	0.390625	-0.0306245	0.191725	0.998087
0.0625	0.40625	-0.0266354	0.201792	0.996587
0.0625	0.421875	-0.0224527	0.211547	0.995264
0.0625	0.4375	-0.0179333	0.21906	0.993829
0.0625	0.453125	-0.0132147	0.226448	0.992649
0.0625	0.46875	-0.00850284	0.231212	0.991417
0.0625	0.484375	-0.00353449	0.236101	0.990486
0.0625	0.5	0.00110202	0.238	0.989557
0.0625	0.515625	0.00606901	0.240283	0.98894
0.0625	0.53125	0.01041	0.239243	0.988362
0.0625	0.546875	0.01513	0.238781	0.988079
0.0625	0.5625	0.0189714	0.234769	0.987856
0.0625	0.578125	0.0231752	0.231386	0.987882
0.0625	0.59375	0.0263039	0.224429	0.987977
0.0625	0.609375	0.0296874	0.217977	0.988252
0.0625	0.625	0.0318794	0.20822	0.988597
0.0625	0.640625	0.0341273	0.19871	0.989033
0.0625	0.65625	0.0351831	0.186502	0.989544
0.0625	0.671875	0.0360393	0.174277	0.990045
0.0625	0.6875	0.0358554	0.16027	0.990629
0.0625	0.703125	0.0352252	0.146127	0.991112
0.0625	0.71875	0.0338709	0.131312	0.991688
0.0625	0.734375	0.0319033	0.116453	0.992101
0.0625	0.75	0.0296437	0.102061	0.992605
0.0625	0.765625	0.0267228	0.0878586	0.992936
0.0625	0.78125	0.0239413	0.0751157	0.993336
0.0625	0.796875	0.020548	0.0628027	0.993596
0.0625	0.8125	0.0175501	0.052683	0.993894
0.0625	0.828125	0.0139425	0.0431629	0.9941
0.0625	0.84375	0.0105036	0.0363341	0.99433
0.0625	0.859375	0.00597891	0.0302254	0.994505
0.0625	0.875	0.000488068	0.0272498	0.994748
0.0625	0.890625	-0.00757123	0.0251087	0.994916
0.0625	0.90625	-0.0182196	0.0267414	0.995309
0.0625	0.921875	-0.0333805	0.0290594	0.995386
0.0625	0.9375	-0.0478376	0.0361132	0.996131
0.0625	0.953125	-0.0590637	0.040514	0.995242
0.0625	0.96875	-0.00624824	0.0344193	0.997204
0.0625	0.984375	0.216722	0.0136005	0.998435
0.0625	1	1	0	1.00286
0.078125	0	0	0	1.00498
0.078125	0.015625	0.00352139	-0.000459697	1.00495
0.078125	0.03125	0.00565901	-0.0013574	1.00498
0.078125	0.046875	0.00610121	-0.00233323	1.00496
0.078125	0.0625	0.00571397	-0.00317198	1.005
0.078125	0.078125	0.00400377	-0.00321123	1.00501
0.078125	0.09375	0.00166571	-0.00261657	1.00507
0.078125	0.109375	-0.00191896	-0.000528491	1.00513
0.078125	0.125	-0.00599584	0.00256238	1.00523
0.078125	0.140625	-0.0111982	0.00765641	1.00535
0.078125	0.15625	-0.0166289	0.0139536	1.00547
0.078125	0.171875	-0.0228439	0.0224732	1.00564
0.078125	0.1875	-0.0288502	0.0321803	1.00575
0.078125	0.203125	-0.0351193	0.0439652	1.00588
0.078125	0.21875	-0.0406704	0.0567075	1.00589
0.078125	0.234375	-0.0459266	0.0710256	1.00585
0.078125	0.25	-0.0500566	0.0859301	1.00566
0.078125	0.265625	-0.0534352	0.101652	1.00532
0.078125	0.28125	-0.0555208	0.117566	1.00483
0.078125	0.296875	-0.056578	0.13345	1.00409
0.078125	0.3125	-0.05644	0.149207	1.00327
0.078125	0.328125	-0.0551913	0.164166	1.00215
0.078125	0.34375	-0.053025	0.178797	1.00103
0.078125	0.359375	-0.0498242	0.192038	0.999621
0.078125	0.375	-0.0460445	0.204862	0.998298
0.078125	0.390625	-0.0414019	0.215908	0.996752
0.078125	0.40625	-0.0364894	0.22653	0.995369
0.078125	0.421875	-0.0309204	0.235148	0.993851
0.078125	0.4375	-0.0253146	0.243394	0.992551
0.078125	0.453125	-0.0192571	0.249505	0.991209
0.078125	0.46875	-0.013309	0.255345	0.990115
0.078125	0.484375	-0.00710364	0.258939	0.989057
0.078125	0.5	-0.00107649	0.26241	0.988259
0.078125	0.515625	0.00501274	0.263485	0.987546
0.078125	0.53125	0.0109111	0.264624	0.98709
0.078125	0.546875	0.0166575	0.263151	0.986741
0.078125	0.5625	0.022227	0.261939	0.986634
0.078125	0.578125	0.0273993	0.257852	0.986628
0.078125	0.59375	0.0323987	0.254168	0.986835
0.078125	0.609375	0.0367276	0.247385	0.987119
0.078125	0.625	0.0408405	0.241021	0.987573
0.078125	0.640625	0.0440104	0.231498	0.988073
0.078125	0.65625	0.0468513	0.222257	0.988681
0.078125	0.671875	0.0485387	0.210105	0.98931
0.078125	0.6875	0.0497256	0.198013	0.989964
0.078125	0.703125	0.0496986	0.183649	0.990635
0.078125	0.71875	0.0489957	0.169209	0.991238
0.078125	0.734375	0.0472452	0.153491	0.991876
0.078125	0.75	0.0447143	0.137799	0.992365
0.078125	0.765625	0.0415261	0.122019	0.992911
0.078125	0.78125	0.0375619	0.10661	0.993275
0.078125	0.796875	0.0334138	0.0922579	0.9937
0.078125	0.8125	0.0285436	0.0787404	0.99397
0.078125	0.828125	0.023734	0.0671593	0.994278
0.078125	0.84375	0.0180562	0.0568678	0.994511
0.078125	0.859375	0.0119107	0.0489668	0.994741
0.078125	0.875	0.00409892	0.0427471	0.995012
0.078125	0.890625	-0.00587894	0.0388541	0.995221
0.078125	0.90625	-0.0188652	0.0369902	0.995606
0.078125	0.921875	-0.0354574	0.0371281	0.9957
0.078125	0.9375	-0.052766	0.039555	0.996014
0.078125	0.953125	-0.0573414	0.0423709	0.995493
0.078125	0.96875	-0.017159	0.0440156	0.994886
0.078125	0.984375	0.272085	0.0193651	0.989439
0.078125	1	1	0	0.996281
0.09375	0	0	0	1.00499
0.09375	0.015625	0.00435779	-0.000172999	1.00492
0.09375	0.03125	0.0063433	-0.000845443	1.0049
0.09375	0.046875	0.00694894	-0.00141812	1.00492
0.09375	0.0625	0.00568928	-0.00144794	1.00492
0.09375	0.078125	0.0034751	-0.000841107	1.00496
0.09375	0.09375	-0.00036737	0.00109518	1.00499
0.09375	0.109375	-0.00496215	0.00410734	1.00506
0.09375	0.125	-0.0110132	0.00905809	1.00515
0.09375	0.140625	-0.0175503	0.0153598	1.00524
0.09375	0.15625	-0.0251494	0.0239199	1.00538
0.09375	0.171875	-0.0327734	0.0338732	1.00547
0.09375	0.1875	-0.0407958	0.046001	1.0056
0.09375	0.203125	-0.0482623	0.0593126	1.00561
0.09375	0.21875	-0.0553368	0.0742731	1.0056
0.09375	0.234375	-0.0613566	0.0900309	1.00542
0.09375	0.25	-0.066277	0.106573	1.00513
0.09375	0.265625	-0.0699067	0.123491	1.00467
0.09375	0.28125	-0.0719832	0.140211	1.00399
0.09375	0.296875	-0.0728333	0.156974	1.00319
0.09375	0.3125	-0.0719966	0.172665	1.0021
0.09375	0.328125	-0.0702005	0.188206	1.00098
0.09375	0.34375	-0.0668599	0.202044	0.999568
0.09375	0.359375	-0.0628911	0.215659	0.998215
0.09375	0.375	-0.0576875	0.227204	0.99662
0.09375	0.390625	-0.0521495	0.238534	0.995164
0.09375	0.40625	-0.0457401	0.247638	0.993558
0.09375	0.421875	-0.039208	0.25657	0.992144
0.09375	0.4375	-0.0321426	0.263258	0.99068
0.09375	0.453125	-0.0250835	0.269821	0.98944
0.09375	0.46875	-0.0177677	0.274191	0.988236
0.09375	0.484375	-0.0105246	0.278475	0.987272
0.09375	0.5	-0.00324075	0.280627	0.986403
0.09375	0.515625	0.00394227	0.282733	0.985778
0.09375	0.53125	0.0109876	0.282732	0.985278
0.09375	0.546875	0.0179226	0.282742	0.985019
0.09375	0.5625	0.024545	0.28059	0.984884
0.09375	0.578125	0.0310499	0.278539	0.98498
0.09375	0.59375	0.0370365	0.274167	0.985174
0.09375	0.609375	0.0428833	0.269999	0.985583
0.09375	0.625	0.0479524	0.263276	0.986044
0.09375	0.640625	0.0528204	0.256813	0.986695
0.09375	0.65625	0.0566026	0.24758	0.987344
0.09375	0.671875	0.0600609	0.238554	0.988142
0.09375	0.6875	0.0621283	0.22673	0.98889
0.09375	0.703125	0.0636899	0.214954	0.989723
0.09375	0.71875	0.0636677	0.200725	0.990487
0.09375	0.734375	0.0629474	0.186408	0.991246
0.09375	0.75	0.0606954	0.170446	0.991956
0.09375	0.765625	0.0576207	0.154475	0.992564
0.09375	0.78125	0.0533691	0.138044	0.993173
0.09375	0.796875	0.0482671	0.121969	0.99361
0.09375	0.8125	0.0425012	0.106744	0.994105
0.09375	0.828125	0.0358298	0.0923793	0.994413
0.09375	0.84375	0.0287314	0.0799847	0.994831
0.09375	0.859375	0.0202798	0.0688076	0.995088
0.09375	0.875	0.0107311	0.0601996	0.99553
0.09375	0.890625	-0.00141043	0.0527056	0.995825
0.09375	0.90625	-0.0161311	0.0476886	0.99642
0.09375	0.921875	-0.0349707	0.0430357	0.996767
0.09375	0.9375	-0.0528508	0.0410754	0.997575
0.09375	0.953125	-0.0614399	0.037327	0.997355
0.09375	0.96875	0.0161908	0.0259713	0.998386
0.09375	0.984375	0.279182	0.00894987	1.00035
0.09375	1	1	0	1.00285
0.109375	0	0	0	1.00483
0.109375	0.015625	0.00453071	-0.000183578	1.0048
0.109375	0.03125	0.00697124	-0.00042907	1.00484
0.109375	0.046875	0.00679257	-0.000354898	1.00482
0.109375	0.0625	0.00521244	0.000230562	1.00486
0.109375	0.078125	0.00153542	0.0019995	1.00487
0.109375	0.09375	-0.00323377	0.00481711	1.00493
0.109375	0.109375	-0.0098457	0.00953613	1.00499
0.109375	0.125	-0.017246	0.0156782	1.00505
0.109375	0.140625	-0.0260878	0.0241695	1.00516
0.109375	0.15625	-0.0351912	0.0342034	1.00522
0.109375	0.171875	-0.0450148	0.046589	1.00533
0.109375	0.1875	-0.0543657	0.0603351	1.00531
0.109375	0.203125	-0.0634977	0.0758884	1.0053
0.109375	0.21875	-0.0714528	0.0923887	1.00511
0.109375	0.234375	-0.078285	0.109711	1.00482
0.109375	0.25	-0.0835411	0.127508	1.00437
0.109375	0.265625	-0.0870477	0.144992	1.00369
0.109375	0.28125	-0.0889822	0.162583	1.00289
0.109375	0.296875	-0.0889335	0.178877	1.00179
0.109375	0.3125	-0.0876138	0.195078	1.00066
0.109375	0.328125	-0.0844332	0.209315	0.99921
0.109375	0.34375	-0.0803986	0.223411	0.997816
0.109375	0.359375	-0.0748483	0.235198	0.996162
0.109375	0.375	-0.0688338	0.246892	0.99463
0.109375	0.390625	-0.0617264	0.256178	0.992941
0.109375	0.40625	-0.0544459	0.265462	0.991415
0.109375	0.421875	-0.0464686	0.27238	0.989847
0.109375	0.4375	-0.0384996	0.279387	0.988462
0.109375	0.453125	-0.0301534	0.284129	0.987138
0.109375	0.46875	-0.0219103	0.289026	0.986002
0.109375	0.484375	-0.0135263	0.291768	0.985005
0.109375	0.5	-0.00528803	0.294692	0.984195
0.109375	0.515625	0.0029197	0.295556	0.983567
0.109375	0.53125	0.0109603	0.296595	0.983124
0.109375	0.546875	0.0188342	0.295641	0.982876
0.109375	0.5625	0.0265187	0.294837	0.982808
0.109375	0.578125	0.0339019	0.292056	0.982919
0.109375	0.59375	0.0410607	0.289412	0.983205
0.109375	0.609375	0.0477485	0.284727	0.983629
0.109375	0.625	0.054157	0.280194	0.984221
0.109375	0.640625	0.0598562	0.273455	0.98489
0.109375	0.65625	0.0651901	0.266894	0.985718
0.109375	0.671875	0.0694908	0.257893	0.986549
0.109375	0.6875	0.0732918	0.249047	0.98752
0.109375	0.703125	0.0756798	0.237591	0.988423
0.109375	0.71875	0.0773812	0.226182	0.989427
0.109375	0.734375	0.0773416	0.212274	0.99032
0.109375	0.75	0.0764161	0.198306	0.991244
0.109375	0.765625	0.0736462	0.182423	0.992061
0.109375	0.78125	0.0698564	0.166573	0.992818
0.109375	0.796875	0.0644614	0.149873	0.993524
0.109375	0.8125	0.057999	0.133628	0.994095
0.109375	0.828125	0.0503711	0.117811	0.994696
0.109375	0.84375	0.0415535	0.103075	0.995145
0.109375	0.859375	0.0316725	0.0897728	0.995698
0.109375	0.875	0.0200588	0.0780159	0.996149
0.109375	0.890625	0.00651737	0.0678719	0.996731
0.109375	0.90625	-0.0097148	0.0592739	0.997309
0.109375	0.921875	-0.0290149	0.0514932	0.997847
0.109375	0.9375	-0.0493815	0.0451161	0.998516
0.109375	0.953125	-0.0512167	0.0388934	0.99863
0.109375	0.96875	0.00512003	0.0336762	0.998743
0.109375	0.984375	0.321431	0.0144587	0.994458
0.109375	1	1	0	0.999405
0.125	0	0	0	1.00474
0.125	0.015625	0.00494712	-1.90643e-05	1.00474
0.125	0.03125	0.00668589	8.26131e-05	1.00473
0.125	0.046875	0.006409	0.000600613	1.00476
0.125	0.0625	0.00344703	0.00212849	1.00476
0.125	0.078125	-0.00103826	0.00465487	1.00481
0.125	0.09375	-0.00784555	0.00901475	1.00485
0.125	0.109375	-0.0158058	0.0148453	1.0049
0.125	0.125	-0.0256626	0.0231047	1.00499
0.125	0.140625	-0.0361111	0.0330532	1.00502
0.125	0.15625	-0.0476574	0.0455411	1.0051
0.125	0.171875	-0.058956	0.0595835	1.00506
0.125	0.1875	-0.0702039	0.0756081	1.00502
0.125	0.203125	-0.0803287	0.0927472	1.00482
0.125	0.21875	-0.0892125	0.110749	1.00451
0.125	0.234375	-0.0964193	0.129324	1.00403
0.125	0.25	-0.101516	0.147462	1.00332
0.125	0.265625	-0.10486	0.165739	1.0025
0.125	0.28125	-0.105744	0.18249	1.00135
0.125	0.296875	-0.10517	0.199141	1.00018
0.125	0.3125	-0.102271	0.213586	0.998663
0.125	0.328125	-0.0983668	0.227872	0.997211
0.125	0.34375	-0.0925809	0.239669	0.99547
0.125	0.359375	-0.086224	0.251369	0.993857
0.125	0.375	-0.0785367	0.26058	0.992065
0.125	0.390625	-0.0706037	0.269811	0.990433
0.125	0.40625	-0.0618544	0.276697	0.988747
0.125	0.421875	-0.053056	0.283728	0.987232
0.125	0.4375	-0.0438485	0.288593	0.985777
0.125	0.453125	-0.0346837	0.293706	0.98449
0.125	0.46875	-0.0254007	0.296804	0.983351
0.125	0.484375	-0.0161864	0.300216	0.982374
0.125	0.5	-0.00705213	0.301711	0.981602
0.125	0.515625	0.00201508	0.303546	0.980986
0.125	0.53125	0.0108629	0.303518	0.9806
0.125	0.546875	0.0196422	0.303809	0.980368
0.125	0.5625	0.0280895	0.30226	0.980362
0.125	0.578125	0.0364421	0.300975	0.980507
0.125	0.59375	0.0443477	0.297846	0.980852
0.125	0.609375	0.052097	0.29491	0.981346
0.125	0.625	0.0592522	0.290088	0.981991
0.125	0.640625	0.066152	0.285403	0.982783
0.125	0.65625	0.0722454	0.278722	0.983659
0.125	0.671875	0.077946	0.272151	0.984677
0.125	0.6875	0.0825328	0.263388	0.985701
0.125	0.703125	0.0865432	0.254706	0.986857
0.125	0.71875	0.089039	0.243619	0.987939
0.125	0.734375	0.0907251	0.232534	0.989127
0.125	0.75	0.0904884	0.219018	0.990183
0.125	0.765625	0.0891942	0.205413	0.991291
0.125	0.78125	0.0857514	0.18979	0.992263
0.125	0.796875	0.081065	0.174148	0.993202
0.125	0.8125	0.0743587	0.157449	0.994071
0.125	0.828125	0.0663002	0.141088	0.994822
0.125	0.84375	0.0565931	0.124946	0.995624
0.125	0.859375	0.0453132	0.109605	0.996261
0.125	0.875	0.0324653	0.0954958	0.997089
0.125	0.890625	0.0173847	0.0822632	0.997736
0.125	0.90625	0.000155666	0.0704154	0.99868
0.125	0.921875	-0.0202758	0.0587556	0.999392
0.125	0.9375	-0.0400068	0.0483901	1.00039
0.125	0.953125	-0.0484493	0.0372069	1.0008
0.125	0.96875	0.0417975	0.0214853	1.00144
0.125	0.984375	0.323639	0.00625121	1.00368
0.125	1	1	0	1.0051
0.140625	0	0	0	1.00463
0.140625	0.015625	0.00458026	6.52669e-05	1.00461
0.140625	0.03125	0.00645977	0.000437248	1.00465
0.140625	0.046875	0.00487044	0.00164495	1.00465
0.140625	0.0625	0.00125474	0.0037701	1.0047
0.140625	0.078125	-0.00526996	0.00764341	1.00473
0.140625	0.09375	-0.0133829	0.0129912	1.00478
0.140625	0.109375	-0.0239328	0.0208429	1.00484
0.140625	0.125	-0.0354776	0.0304969	1.00486
0.140625	0.140625	-0.0486055	0.0429061	1.00492
0.140625	0.15625	-0.0617759	0.0570461	1.00485
0.140625	0.171875	-0.0751937	0.0733972	1.00479
0.140625	0.1875	-0.0875582	0.0910119	1.00455
0.140625	0.203125	-0.0986956	0.10959	1.00421
0.140625	0.21875	-0.108002	0.1288	1.00369
0.140625	0.234375	-0.114955	0.147503	1.00293
0.140625	0.25	-0.119875	0.166312	1.00205
0.140625	0.265625	-0.121951	0.183415	1.00083
0.140625	0.28125	-0.122275	0.200328	0.999594
0.140625	0.296875	-0.119872	0.214837	0.997987
0.140625	0.3125	-0.116228	0.22908	0.996452
0.140625	0.328125	-0.110368	0.240695	0.994609
0.140625	0.34375	-0.103789	0.252118	0.9929
0.140625	0.359375	-0.0956463	0.261018	0.990999
0.140625	0.375	-0.0871897	0.269874	0.989255
0.140625	0.390625	-0.077777	0.276465	0.987456
0.140625	0.40625	-0.0683007	0.283172	0.985813
0.140625	0.421875	-0.0583409	0.287888	0.984237
0.140625	0.4375	-0.0484358	0.292854	0.982805
0.140625	0.453125	-0.0383716	0.296042	0.981537
0.140625	0.46875	-0.0283929	0.299575	0.9804
0.140625	0.484375	-0.0184629	0.301458	0.979489
0.140625	0.5	-0.00860493	0.303741	0.978704
0.140625	0.515625	0.0010697	0.304421	0.978177
0.140625	0.53125	0.0106956	0.305519	0.977774
0.140625	0.546875	0.0200372	0.305002	0.977634
0.140625	0.5625	0.0293372	0.304881	0.977621
0.140625	0.578125	0.0382547	0.303095	0.977854
0.140625	0.59375	0.047102	0.301643	0.978218
0.140625	0.609375	0.055449	0.298462	0.978791
0.140625	0.625	0.0636481	0.295521	0.9795
0.140625	0.640625	0.0711902	0.290777	0.980362
0.140625	0.65625	0.0784546	0.286173	0.981363
0.140625	0.671875	0.0848429	0.279668	0.982448
0.140625	0.6875	0.0907743	0.273227	0.98367
0.140625	0.703125	0.0955182	0.264726	0.984898
0.140625	0.71875	0.099575	0.256238	0.986256
0.140625	0.734375	0.102023	0.245485	0.987537
0.140625	0.75	0.103502	0.234682	0.988931
0.140625	0.765625	0.1029	0.221504	0.990184
0.140625	0.78125	0.101029	0.208221	0.991509
0.140625	0.796875	0.0967374	0.19281	0.99268
0.140625	0.8125	0.0909472	0.177389	0.993854
0.140625	0.828125	0.0827399	0.160605	0.994937
0.140625	0.84375	0.0729105	0.144183	0.99595
0.140625	0.859375	0.0609322	0.127445	0.996988
0.140625	0.875	0.0471705	0.111541	0.997925
0.140625	0.890625	0.0312846	0.095976	0.998972
0.140625	0.90625	0.0132844	0.0814044	0.999944
0.140625	0.921875	-0.00720094	0.0667723	1.00091
0.140625	0.9375	-0.0289607	0.0531112	1.00194
0.140625	0.953125	-0.0307597	0.0394208	1.00239
0.140625	0.96875	0.0326954	0.0285621	1.00307
0.140625	0.984375	0.358703	0.0120265	0.999398
0.140625	1	1	0	1.00318
0.15625	0	0	0	1.00448
0.15625	0.015625	0.00464954	0.00010096	1.00453
0.15625	0.03125	0.00524677	0.000900522	1.00452
0.15625	0.046875	0.00319177	0.0024755	1.00458
0.15625	0.0625	-0.00244322	0.00571557	1.0046
0.15625	0.078125	-0.0101965	0.0103932	1.00466
0.15625	0.09375	-0.0210136	0.0176247	1.00471
0.15625	0.109375	-0.0333181	0.0267519	1.00473
0.15625	0.125	-0.0477889	0.0388417	1.00477
0.15625	0.140625	-0.0627043	0.0528477	1.00469
0.15625	0.15625	-0.0782581	0.0693173	1.00461
0.15625	0.171875	-0.0929407	0.0872224	1.00434
0.15625	0.1875	-0.106458	0.106228	1.00397
0.15625	0.203125	-0.118074	0.125939	1.0034
0.15625	0.21875	-0.127084	0.145105	1.00258
0.15625	0.234375	-0.133832	0.164337	1.00164
0.15625	0.25	-0.137301	0.18171	1.00033
0.15625	0.265625	-0.138747	0.19877	0.999006
0.15625	0.28125	-0.137002	0.213252	0.997286
0.15625	0.296875	-0.133787	0.227304	0.995654
0.15625	0.3125	-0.127971	0.238613	0.993686
0.15625	0.328125	-0.121288	0.249566	0.991872
0.15625	0.34375	-0.112786	0.257995	0.989844
0.15625	0.359375	-0.103893	0.266238	0.987992
0.15625	0.375	-0.0939173	0.272345	0.986067
0.15625	0.390625	-0.0838483	0.278453	0.984307
0.15625	0.40625	-0.0732572	0.28281	0.982605
0.15625	0.421875	-0.0627123	0.287328	0.981045
0.15625	0.4375	-0.0520141	0.290381	0.979643
0.15625	0.453125	-0.0413968	0.293709	0.978366
0.15625	0.46875	-0.0308443	0.295741	0.977312
0.15625	0.484375	-0.0203525	0.298119	0.976373
0.15625	0.5	-0.0100493	0.299264	0.975694
0.15625	0.515625	0.000231945	0.300794	0.975128
0.15625	0.53125	0.0102463	0.301072	0.974836
0.15625	0.546875	0.0202703	0.301746	0.974659
0.15625	0.5625	0.0299572	0.301091	0.97475
0.15625	0.578125	0.0396589	0.300813	0.974963
0.15625	0.59375	0.0489343	0.299086	0.97542
0.15625	0.609375	0.058186	0.297684	0.976006
0.15625	0.625	0.0668838	0.294694	0.976796
0.15625	0.640625	0.0754612	0.291936	0.977724
0.15625	0.65625	0.0833058	0.287454	0.978799
0.15625	0.671875	0.0908684	0.283088	0.980017
0.15625	0.6875	0.0974546	0.27687	0.981315
0.15625	0.703125	0.103535	0.270658	0.982755
0.15625	0.71875	0.108309	0.262449	0.984198
0.15625	0.734375	0.112296	0.254164	0.985778
0.15625	0.75	0.114534	0.2437	0.987283
0.15625	0.765625	0.115646	0.233086	0.988908
0.15625	0.78125	0.11449	0.220163	0.990396
0.15625	0.796875	0.111852	0.207022	0.991969
0.15625	0.8125	0.106527	0.19174	0.993392
0.15625	0.828125	0.0994452	0.176279	0.994836