TITLE = "SOLUTION_FIELD"
VARIABLES = "x" "y" "u" "v" "p"
ZONE N=1089, E=2048, F=FEPOINT, ET=TRIANGLE
0	0	0	0	1.00279
0	0.03125	0	0	1.00282
0	0.0625	0	0	1.00295
0	0.09375	0	0	1.00309
0	0.125	0	0	1.00362
0	0.15625	0	0	1.00349
0	0.1875	0	0	1.00423
0	0.21875	0	0	1.00356
0	0.25	0	0	1.00424
0	0.28125	0	0	1.00288
0	0.3125	0	0	1.00319
0	0.34375	0	0	1.00115
0	0.375	0	0	1.00084
0	0.40625	0	0	0.99834
0	0.4375	0	0	0.997348
0	0.46875	0	0	0.994807
0	0.5	0	0	0.993279
0	0.53125	0	0	0.991136
0	0.5625	0	0	0.989359
0	0.59375	0	0	0.987927
0	0.625	0	0	0.986211
0	0.65625	0	0	0.985559
0	0.6875	0	0	0.984154
0	0.71875	0	0	0.984093
0	0.75	0	0	0.983201
0	0.78125	0	0	0.983303
0	0.8125	0	0	0.983288
0	0.84375	0	0	0.982642
0	0.875	0	0	0.984308
0	0.90625	0	0	0.980734
0	0.9375	0	0	0.974786
0	0.96875	0	0	0.93837
0	1	1	0	0.944126
0.03125	0	0	0	1.00276
0.03125	0.03125	8.39043e-05	-9.25925e-05	1.00278
0.03125	0.0625	-0.00010522	-1.08426e-05	1.00287
0.03125	0.09375	-0.000695497	0.000958673	1.003
0.03125	0.125	-0.000879462	0.00262325	1.00322
0.03125	0.15625	-0.00187681	0.00552773	1.00322
0.03125	0.1875	-0.00175068	0.00942229	1.00347
0.03125	0.21875	-0.00304003	0.0141822	1.00313
0.03125	0.25	-0.00248859	0.0203093	1.00318
0.03125	0.28125	-0.00384211	0.026262	1.00233
0.03125	0.3125	-0.00285918	0.0340174	1.00197
0.03125	0.34375	-0.00399061	0.0400603	1.00058
0.03125	0.375	-0.00270125	0.0482973	0.999667
0.03125	0.40625	-0.00336094	0.0531683	0.997878
0.03125	0.4375	-0.00200617	0.0604724	0.996444
0.03125	0.46875	-0.00207532	0.0631288	0.994545
0.03125	0.5	-0.000939762	0.0682392	0.992801
0.03125	0.53125	-0.000471139	0.0681775	0.991116
0.03125	0.5625	0.000210287	0.0703966	0.989362
0.03125	0.59375	0.00101913	0.0678008	0.988122
0.03125	0.625	0.0011329	0.0672187	0.986625
0.03125	0.65625	0.00199603	0.0628982	0.985878
0.03125	0.6875	0.00156899	0.0604232	0.984792
0.03125	0.71875	0.00212586	0.0556548	0.984389
0.03125	0.75	0.00126297	0.0530368	0.98376
0.03125	0.78125	0.000855902	0.049619	0.98329
0.03125	0.8125	-0.000516363	0.050303	0.983173
0.03125	0.84375	-0.00378306	0.0518893	0.981499
0.03125	0.875	-0.00629922	0.0643353	0.981652
0.03125	0.90625	-0.0162076	0.0820129	0.975184
0.03125	0.9375	-0.0274738	0.112304	0.966812
0.03125	0.96875	0.157361	0.0534882	0.943478
0.03125	1	1	0	0.949882
0.0625	0	0	0	1.00265
0.0625	0.03125	5.88002e-05	7.10027e-05	1.00273
0.0625	0.0625	-0.00109415	0.000964907	1.00278
0.0625	0.09375	-0.00250956	0.00271869	1.00292
0.0625	0.125	-0.00440811	0.0063028	1.00305
0.0625	0.15625	-0.00625732	0.0111608	1.00315
0.0625	0.1875	-0.00817978	0.017914	1.00317
0.0625	0.21875	-0.00990462	0.0261029	1.00306
0.0625	0.25	-0.0113296	0.0355268	1.00277
0.0625	0.28125	-0.0124279	0.0464186	1.00225
0.0625	0.3125	-0.012933	0.0572636	1.00149
0.0625	0.34375	-0.0129876	0.0695064	1.00045
0.0625	0.375	-0.0123685	0.0800401	0.999173
0.0625	0.40625	-0.0112098	0.0918106	0.99766
0.0625	0.4375	-0.00957492	0.100219	0.995996
0.0625	0.46875	-0.0073828	0.109634	0.994233
0.0625	0.5	-0.00512656	0.114473	0.992463
0.0625	0.53125	-0.00241195	0.120071	0.990756
0.0625	0.5625	-9.58477e-05	0.120646	0.989188
0.0625	0.59375	0.0024518	0.121802	0.987795
0.0625	0.625	0.00425059	0.118377	0.986634
0.0625	0.65625	0.00594217	0.115542	0.985675
0.0625	0.6875	0.0067107	0.109371	0.984956
0.0625	0.71875	0.00691922	0.104128	0.98439
0.0625	0.75	0.00607322	0.0974277	0.983996
0.0625	0.78125	0.00378265	0.0925013	0.98365
0.0625	0.8125	-9.39572e-05	0.0886997	0.983385
0.0625	0.84375	-0.00826149	0.0883453	0.982919
0.0625	0.875	-0.0176904	0.0924596	0.982782
0.0625	0.90625	-0.0361998	0.0992353	0.980479
0.0625	0.9375	-0.00247428	0.0827274	0.982779
0.0625	0.96875	0.185492	0.0445486	0.98839
0.0625	1	1	0	0.998664
0.09375	0	0	0	1.00251
0.09375	0.03125	-0.0007126	0.000464393	1.00254
0.09375	0.0625	-0.00267522	0.00189085	1.00266
0.09375	0.09375	-0.0059028	0.00505235	1.00276
0.09375	0.125	-0.00928278	0.00976112	1.0029
0.09375	0.15625	-0.0131579	0.0166067	1.00295
0.09375	0.1875	-0.016626	0.0251891	1.00297
0.09375	0.21875	-0.020105	0.0356102	1.00279
0.09375	0.25	-0.022701	0.0476519	1.0025
0.09375	0.28125	-0.0248873	0.0606425	1.00189
0.09375	0.3125	-0.0258224	0.0749077	1.00112
0.09375	0.34375	-0.0260567	0.0887964	0.999964
0.09375	0.375	-0.024887	0.103479	0.998681
0.09375	0.40625	-0.0229572	0.116251	0.997037
0.09375	0.4375	-0.0197536	0.129325	0.995391
0.09375	0.46875	-0.0160098	0.139037	0.993509
0.09375	0.5	-0.0113813	0.148668	0.991793
0.09375	0.53125	-0.00665903	0.153864	0.990021
0.09375	0.5625	-0.00161541	0.15878	0.988545
0.09375	0.59375	0.00297832	0.158826	0.98718
0.09375	0.625	0.0072524	0.158635	0.986136
0.09375	0.65625	0.0105708	0.153924	0.98531
0.09375	0.6875	0.0129069	0.149337	0.984726
0.09375	0.71875	0.0138485	0.141363	0.984378
0.09375	0.75	0.0130277	0.13431	0.984153
0.09375	0.78125	0.0101222	0.125574	0.984104
0.09375	0.8125	0.00402439	0.119005	0.984087
0.09375	0.84375	-0.00573967	0.112527	0.984151
0.09375	0.875	-0.0200388	0.10873	0.983979
0.09375	0.90625	-0.0271602	0.102862	0.98403
0.09375	0.9375	0.00736746	0.0883138	0.982079
0.09375	0.96875	0.288671	0.0398901	0.973433
0.09375	1	1	0	0.992227
0.125	0	0	0	1.00211
0.125	0.03125	-0.0017051	0.000528802	1.00237
0.125	0.0625	-0.00554634	0.00297358	1.00247
0.125	0.09375	-0.0102599	0.00689998	1.00264
0.125	0.125	-0.0158908	0.0131432	1.00274
0.125	0.15625	-0.0215231	0.0211611	1.00281
0.125	0.1875	-0.027146	0.0314596	1.00278
0.125	0.21875	-0.0321459	0.043456	1.00259
0.125	0.25	-0.0363462	0.0571197	1.00221
0.125	0.28125	-0.0394156	0.0721009	1.00156
0.125	0.3125	-0.0410688	0.0876664	1.00064
0.125	0.34375	-0.0412675	0.103966	0.999439
0.125	0.375	-0.0397594	0.119468	0.99794
0.125	0.40625	-0.0367709	0.135052	0.996276
0.125	0.4375	-0.0322239	0.148396	0.994367
0.125	0.46875	-0.0264866	0.161266	0.99253
0.125	0.5	-0.0197643	0.170643	0.990559
0.125	0.53125	-0.0123842	0.179201	0.988915
0.125	0.5625	-0.00487947	0.183414	0.987264
0.125	0.59375	0.00260993	0.186718	0.986104
0.125	0.625	0.00927044	0.185375	0.985032
0.125	0.65625	0.0151698	0.183285	0.98447
0.125	0.6875	0.0193605	0.176909	0.984048
0.125	0.71875	0.0219417	0.170213	0.984017
0.125	0.75	0.02204	0.160259	0.984175
0.125	0.78125	0.0193349	0.150601	0.984529
0.125	0.8125	0.013204	0.138968	0.985226
0.125	0.84375	0.00232693	0.12781	0.985896
0.125	0.875	-0.0101892	0.114684	0.987371
0.125	0.90625	-0.0184023	0.0987446	0.988142
0.125	0.9375	0.0570659	0.0671057	0.990731
0.125	0.96875	0.318278	0.0222297	0.996617
0.125	1	1	0	1.00522
0.15625	0	0	0	1.00208
0.15625	0.03125	-0.00358001	0.00101553	1.00219
0.15625	0.0625	-0.00890167	0.00372025	1.00233
0.15625	0.09375	-0.0159695	0.00885455	1.00247
0.15625	0.125	-0.0234876	0.0158798	1.00258
0.15625	0.15625	-0.0314363	0.0253947	1.00263
0.15625	0.1875	-0.0389196	0.0367599	1.00254
0.15625	0.21875	-0.0457615	0.0502141	1.0023
0.15625	0.25	-0.0513797	0.0651895	1.0018
0.15625	0.28125	-0.0554475	0.0813725	1.00105
0.15625	0.3125	-0.0577298	0.0984865	0.99997
0.15625	0.34375	-0.0578525	0.115559	0.998574
0.15625	0.375	-0.05598	0.132814	0.996929
0.15625	0.40625	-0.0518162	0.148621	0.994986
0.15625	0.4375	-0.0458983	0.163886	0.993015
0.15625	0.46875	-0.0381018	0.17641	0.99085
0.15625	0.5	-0.029168	0.187869	0.988952
0.15625	0.53125	-0.019215	0.19562	0.987005
0.15625	0.5625	-0.00894541	0.202072	0.985573
0.15625	0.59375	0.00123548	0.20425	0.98422
0.15625	0.625	0.010851	0.205161	0.983498
0.15625	0.65625	0.0192036	0.201644	0.982928
0.15625	0.6875	0.0260873	0.19709	0.982957
0.15625	0.71875	0.030592	0.188389	0.983169
0.15625	0.75	0.0326527	0.179015	0.983839
0.15625	0.78125	0.0312922	0.166124	0.984749
0.15625	0.8125	0.0263942	0.152789	0.985944
0.15625	0.84375	0.0173536	0.136317	0.987481
0.15625	0.875	0.00599128	0.118647	0.989121
0.15625	0.90625	0.0114371	0.0953525	0.990894
0.15625	0.9375	0.0752834	0.0673439	0.99302
0.15625	0.96875	0.384898	0.0261258	0.987989
0.15625	1	1	0	0.997927
0.1875	0	0	0	1.00154
0.1875	0.03125	-0.00546663	0.00086441	1.00195
0.1875	0.0625	-0.0133699	0.00459895	1.00211
0.1875	0.09375	-0.0223826	0.0102326	1.0023
0.1875	0.125	-0.0324093	0.0185694	1.0024
0.1875	0.15625	-0.0423813	0.0288603	1.00241
0.1875	0.1875	-0.052002	0.0415461	1.00227
0.1875	0.21875	-0.0605865	0.0559748	1.00191
0.1875	0.25	-0.0675935	0.0720636	1.00129
0.1875	0.28125	-0.0727522	0.0894046	1.00034
0.1875	0.3125	-0.0753647	0.107253	0.999054
0.1875	0.34375	-0.075636	0.12562	0.997428
0.1875	0.375	-0.0728917	0.143072	0.995466
0.1875	0.40625	-0.067843	0.160219	0.993347
0.1875	0.4375	-0.0599869	0.175054	0.990985
0.1875	0.46875	-0.0503981	0.188897	0.988779
0.1875	0.5	-0.0388376	0.199369	0.986494
0.1875	0.53125	-0.0264479	0.208453	0.984677
0.1875	0.5625	-0.0132986	0.213555	0.982955
0.1875	0.59375	-0.00030885	0.217156	0.981901
0.1875	0.625	0.0121041	0.216523	0.981059
0.1875	0.65625	0.0233882	0.214466	0.980936
0.1875	0.6875	0.0327758	0.208163	0.981066
0.1875	0.71875	0.0400818	0.200571	0.981842
0.1875	0.75	0.0442728	0.188907	0.98288
0.1875	0.78125	0.04543	0.176008	0.984407
0.1875	0.8125	0.0425273	0.159266	0.986244
0.1875	0.84375	0.0359744	0.14086	0.988355
0.1875	0.875	0.0289058	0.118466	0.990837
0.1875	0.90625	0.0327728	0.0923181	0.993072
0.1875	0.9375	0.131051	0.0559506	0.99479
0.1875	0.96875	0.407369	0.0160168	1.00092
0.1875	1	1	0	1.00661
0.21875	0	0	0	1.00163
0.21875	0.03125	-0.00816534	0.00144196	1.0018
0.21875	0.0625	-0.0181459	0.00514397	1.00195
0.21875	0.09375	-0.029886	0.0118017	1.00211
0.21875	0.125	-0.0420746	0.0206057	1.00219
0.21875	0.15625	-0.0544127	0.032026	1.00214
0.21875	0.1875	-0.0660389	0.0453915	1.00191
0.21875	0.21875	-0.0763321	0.0607653	1.00142
0.21875	0.25	-0.0848645	0.0777152	1.0006
0.21875	0.28125	-0.0907391	0.095659	0.99942
0.21875	0.3125	-0.0940369	0.114539	0.997844
0.21875	0.34375	-0.0937786	0.133003	0.995877
0.21875	0.375	-0.0906587	0.151557	0.993627
0.21875	0.40625	-0.0838469	0.168153	0.991068
0.21875	0.4375	-0.0745981	0.184026	0.988531
0.21875	0.46875	-0.0623776	0.196696	0.985869
0.21875	0.5	-0.0486743	0.208099	0.983589
0.21875	0.53125	-0.0332883	0.215596	0.981408
0.21875	0.5625	-0.0175444	0.221596	0.979879
0.21875	0.59375	-0.00159057	0.223445	0.978633
0.21875	0.625	0.01366	0.223776	0.978152
0.21875	0.65625	0.0276873	0.219939	0.978041
0.21875	0.6875	0.0400554	0.214624	0.978677
0.21875	0.71875	0.0498614	0.205165	0.979673
0.21875	0.75	0.0571327	0.194201	0.981312
0.21875	0.78125	0.0606782	0.179077	0.983238
0.21875	0.8125	0.0610543	0.162247	0.985649
0.21875	0.84375	0.0574009	0.141116	0.98818
0.21875	0.875	0.0527882	0.117819	0.990993
0.21875	0.90625	0.0695425	0.0884967	0.993249
0.21875	0.9375	0.150566	0.0566848	0.996528
0.21875	0.96875	0.457781	0.0210338	0.992855
0.21875	1	1	0	0.999753
0.25	0	0	0	1.001
0.25	0.03125	-0.0107853	0.00113346	1.00152
0.25	0.0625	-0.0238124	0.00583305	1.00172
0.25	0.09375	-0.0378502	0.0127103	1.0019
0.25	0.125	-0.0526157	0.0224436	1.00193
0.25	0.15625	-0.0671365	0.0342248	1.00183
0.25	0.1875	-0.080744	0.0482911	1.00146
0.25	0.21875	-0.0929086	0.0641733	1.0008
0.25	0.25	-0.102552	0.0814913	0.999743
0.25	0.28125	-0.10963	0.100151	0.998262
0.25	0.3125	-0.112819	0.11895	0.996322
0.25	0.34375	-0.112733	0.138295	0.993982
0.25	0.375	-0.108127	0.156137	0.99125
0.25	0.40625	-0.100361	0.173617	0.988382
0.25	0.4375	-0.0885384	0.188114	0.985319
0.25	0.46875	-0.0744676	0.201564	0.982518
0.25	0.5	-0.0576866	0.211144	0.979796
0.25	0.53125	-0.0399073	0.219353	0.977675
0.25	0.5625	-0.0210827	0.223403	0.975891
0.25	0.59375	-0.00244736	0.226005	0.97488
0.25	0.625	0.0156495	0.224483	0.974358
0.25	0.65625	0.0325599	0.221498	0.974633
0.25	0.6875	0.0475295	0.214471	0.975416
0.25	0.71875	0.0604563	0.205894	0.976918
0.25	0.75	0.0702054	0.193269	0.978832
0.25	0.78125	0.0771996	0.178839	0.981316
0.25	0.8125	0.0801098	0.160291	0.984026
0.25	0.84375	0.0801044	0.139434	0.987048
0.25	0.875	0.080292	0.114316	0.98999
0.25	0.90625	0.0943478	0.085764	0.992887
0.25	0.9375	0.2042	0.0494225	0.993964
0.25	0.96875	0.477903	0.0131277	0.999838
0.25	1	1	0	1.00452
0.28125	0	0	0	1.00121
0.28125	0.03125	-0.0140575	0.00175644	1.00143
0.28125	0.0625	-0.0296085	0.00613522	1.00157
0.28125	0.09375	-0.0464422	0.0136546	1.00169
0.28125	0.125	-0.0635176	0.0233845	1.00169
0.28125	0.15625	-0.0802115	0.0355691	1.00145
0.28125	0.1875	-0.0959343	0.0497177	1.00096
0.28125	0.21875	-0.109537	0.0656518	1.00005
0.28125	0.25	-0.120856	0.0832504	0.998727
0.28125	0.28125	-0.128288	0.101578	0.99687
0.28125	0.3125	-0.132257	0.120914	0.99452
0.28125	0.34375	-0.131073	0.139365	0.991672
0.28125	0.375	-0.126052	0.157864	0.988515
0.28125	0.40625	-0.115863	0.173771	0.985064
0.28125	0.4375	-0.102564	0.188884	0.981714
0.28125	0.46875	-0.0853747	0.200267	0.978392
0.28125	0.5	-0.0664455	0.21043	0.975587
0.28125	0.53125	-0.0455125	0.216478	0.973142
0.28125	0.5625	-0.0241924	0.221216	0.971454
0.28125	0.59375	-0.00268362	0.221891	0.970359
0.28125	0.625	0.0181324	0.221246	0.970082
0.28125	0.65625	0.0376238	0.21667	0.970467
0.28125	0.6875	0.0555697	0.210683	0.97162
0.28125	0.71875	0.0709142	0.200796	0.973341
0.28125	0.75	0.0840033	0.189285	0.975709
0.28125	0.78125	0.0934127	0.173777	0.978412
0.28125	0.8125	0.100092	0.156322	0.981572
0.28125	0.84375	0.1029	0.13469	0.984665
0.28125	0.875	0.105585	0.110807	0.987963
0.28125	0.90625	0.132091	0.0809887	0.990232
0.28125	0.9375	0.223992	0.0497083	0.994019
0.28125	0.96875	0.518932	0.0180354	0.991125
0.28125	1	1	0	0.996604
0.3125	0	0	0	1.00058
0.3125	0.03125	-0.0172095	0.00129728	1.00117
0.3125	0.0625	-0.0358466	0.00642455	1.00137
0.3125	0.09375	-0.0551064	0.0137252	1.0015
0.3125	0.125	-0.0744687	0.0236278	1.00138
0.3125	0.15625	-0.0933857	0.0354732	1.00109
0.3125	0.1875	-0.110765	0.0493223	1.00035
0.3125	0.21875	-0.126399	0.0650048	0.999255
0.3125	0.25	-0.138519	0.0819597	0.997549
0.3125	0.28125	-0.147344	0.100335	0.995305
0.3125	0.3125	-0.150727	0.118583	0.99244
0.3125	0.34375	-0.14977	0.137335	0.989093
0.3125	0.375	-0.142609	0.154102	0.985319
0.3125	0.40625	-0.13142	0.170366	0.981445
0.3125	0.4375	-0.115014	0.183196	0.977507
0.3125	0.46875	-0.0959974	0.19494	0.973956
0.3125	0.5	-0.073856	0.202716	0.970755
0.3125	0.53125	-0.0506831	0.209299	0.968266
0.3125	0.5625	-0.0265116	0.211995	0.966447
0.3125	0.59375	-0.00252524	0.213547	0.965449
0.3125	0.625	0.0207685	0.211394	0.965259
0.3125	0.65625	0.0430116	0.208034	0.965862
0.3125	0.6875	0.0632286	0.201025	0.967214
0.3125	0.71875	0.0816865	0.192581	0.969255
0.3125	0.75	0.0969925	0.180432	0.971819
0.3125	0.78125	0.109957	0.166488	0.97489
0.3125	0.8125	0.118901	0.148786	0.978119
0.3125	0.84375	0.125394	0.128836	0.981555
0.3125	0.875	0.132851	0.104854	0.984639
0.3125	0.90625	0.156157	0.0777582	0.987752
0.3125	0.9375	0.273116	0.0440064	0.988389
0.3125	0.96875	0.538007	0.0111706	0.993962
0.3125	1	1	0	0.998184
0.34375	0	0	0	1.00094
0.34375	0.03125	-0.0206229	0.00183593	1.00118
0.34375	0.0625	-0.0419259	0.00626045	1.00127
0.34375	0.09375	-0.063556	0.0134813	1.0013
0.34375	0.125	-0.0851433	0.0226494	1.00116
0.34375	0.15625	-0.105785	0.0338465	1.00063
0.34375	0.1875	-0.12536	0.0468848	0.999806
0.34375	0.21875	-0.142143	0.0615584	0.998328
0.34375	0.25	-0.156197	0.0779508	0.996329
0.34375	0.28125	-0.165017	0.0950069	0.993578
0.34375	0.3125	-0.169358	0.113063	0.990209
0.34375	0.34375	-0.166713	0.129963	0.986242
0.34375	0.375	-0.159163	0.146739	0.981938
0.34375	0.40625	-0.144972	0.160575	0.977433
0.34375	0.4375	-0.127139	0.173467	0.973127
0.34375	0.46875	-0.104845	0.182628	0.969117
0.34375	0.5	-0.0807769	0.190653	0.965739
0.34375	0.53125	-0.054783	0.195045	0.963074
0.34375	0.5625	-0.0284653	0.198436	0.961211
0.34375	0.59375	-0.00217061	0.198494	0.960283
0.34375	0.625	0.0235381	0.197585	0.960155
0.34375	0.65625	0.0478233	0.193418	0.960955
0.34375	0.6875	0.0708473	0.188095	0.962474
0.34375	0.71875	0.0912921	0.179389	0.964712
0.34375	0.75	0.109868	0.169192	0.967528
0.34375	0.78125	0.124836	0.155449	0.970686
0.34375	0.8125	0.13745	0.139886	0.974195
0.34375	0.84375	0.146391	0.120593	0.977514
0.34375	0.875	0.156078	0.099186	0.980927
0.34375	0.90625	0.191687	0.0717965	0.983042
0.34375	0.9375	0.291942	0.0432788	0.987098
0.34375	0.96875	0.571991	0.0154572	0.984843
0.34375	1	1	0	0.989457
0.375	0	0	0	1.00046
0.375	0.03125	-0.0238448	0.00123243	1.001
0.375	0.0625	-0.0476524	0.00583987	1.00115
0.375	0.09375	-0.0714735	0.012199	1.00118
0.375	0.125	-0.0947048	0.0205031	1.00086
0.375	0.15625	-0.11748	0.0304224	1.00033
0.375	0.1875	-0.138358	0.0420774	0.999138
0.375	0.21875	-0.157409	0.0555249	0.997513
0.375	0.25	-0.17202	0.07031	0.995018
0.375	0.28125	-0.182547	0.0865477	0.991848
0.375	0.3125	-0.18584	0.102638	0.987877
0.375	0.34375	-0.183575	0.119098	0.983333
0.375	0.375	-0.173302	0.133391	0.978392
0.375	0.40625	-0.158195	0.146959	0.973394
0.375	0.4375	-0.137032	0.157153	0.968586
0.375	0.46875	-0.113154	0.166226	0.964277
0.375	0.5	-0.0862368	0.171926	0.96068
0.375	0.53125	-0.0584582	0.176678	0.957851
0.375	0.5625	-0.0300107	0.178531	0.956047
0.375	0.59375	-0.00174656	0.179614	0.955037
0.375	0.625	0.0257022	0.178013	0.955116
0.375	0.65625	0.0523507	0.175543	0.955922
0.375	0.6875	0.077059	0.170229	0.957656
0.375	0.71875	0.100397	0.163702	0.960002
0.375	0.75	0.120712	0.154064	0.962929
0.375	0.78125	0.139073	0.142795	0.966267
0.375	0.8125	0.153487	0.128281	0.969702
0.375	0.84375	0.165866	0.111708	0.973223
0.375	0.875	0.180444	0.0912851	0.976245
0.375	0.90625	0.212824	0.0678274	0.979379
0.375	0.9375	0.335342	0.0382005	0.979736
0.375	0.96875	0.589535	0.00934765	0.984994
0.375	1	1	0	0.988826
0.40625	0	0	0	1.00096
0.40625	0.03125	-0.0266703	0.00150296	1.00116
0.40625	0.0625	-0.0527938	0.00496595	1.00118
0.40625	0.09375	-0.0780725	0.0103024	1.00106
0.40625	0.125	-0.103188	0.0169973	1.00077
0.40625	0.15625	-0.12716	0.0251985	0.999906
0.40625	0.1875	-0.150323	0.0350148	0.998722
0.40625	0.21875	-0.170328	0.0465148	0.996613
0.40625	0.25	-0.187255	0.0597468	0.993875
0.40625	0.28125	-0.197498	0.0738544	0.990126
0.40625	0.3125	-0.202069	0.0889134	0.985629
0.40625	0.34375	-0.197632	0.102881	0.980471
0.40625	0.375	-0.187144	0.116535	0.974947
0.40625	0.40625	-0.16876	0.127399	0.969439
0.40625	0.4375	-0.146411	0.137206	0.96421
0.40625	0.46875	-0.119571	0.143892	0.959651
0.40625	0.5	-0.0911996	0.149591	0.955794
0.40625	0.53125	-0.0613933	0.152748	0.953009
0.40625	0.5625	-0.0314335	0.155248	0.951015
0.40625	0.59375	-0.00175431	0.155672	0.950229
0.40625	0.625	0.0274964	0.155504	0.950172
0.40625	0.65625	0.055445	0.153191	0.951224
0.40625	0.6875	0.0825174	0.150012	0.952911
0.40625	0.71875	0.107274	0.144298	0.955407
0.40625	0.75	0.130574	0.137296	0.958386
0.40625	0.78125	0.150452	0.127384	0.961702
0.40625	0.8125	0.168287	0.115827	0.96526
0.40625	0.84375	0.182897	0.100959	0.968556
0.40625	0.875	0.199445	0.0840168	0.971879
0.40625	0.90625	0.244275	0.0608477	0.973759
0.40625	0.9375	0.352082	0.036411	0.977927
0.40625	0.96875	0.617428	0.0128005	0.976235
0.40625	1	1	0	0.980178
0.4375	0	0	0	1.00082
0.4375	0.03125	-0.0291827	0.000821561	1.00116
0.4375	0.0625	-0.0565697	0.00365866	1.0012
0.4375	0.09375	-0.0834299	0.00742624	1.00112
0.4375	0.125	-0.109388	0.0122469	1.00057
0.4375	0.15625	-0.135305	0.018205	0.999819
0.4375	0.1875	-0.159505	0.0257407	0.998182
0.4375	0.21875	-0.182082	0.0349601	0.996052
0.4375	0.25	-0.199435	0.0458186	0.992752
0.4375	0.28125	-0.211855	0.0581373	0.988655
0.4375	0.3125	-0.215089	0.0706575	0.983573
0.4375	0.34375	-0.21139	0.0834922	0.977827
0.4375	0.375	-0.197946	0.0944944	0.971814
0.4375	0.40625	-0.178944	0.104713	0.965767
0.4375	0.4375	-0.153509	0.112164	0.960283
0.4375	0.46875	-0.125517	0.118585	0.955364
0.4375	0.5	-0.0950669	0.122681	0.951538
0.4375	0.53125	-0.0641097	0.126104	0.948492
0.4375	0.5625	-0.0329871	0.127939	0.946732
0.4375	0.59375	-0.00206837	0.129367	0.945712
0.4375	0.625	0.0280579	0.129398	0.94594
0.4375	0.65625	0.0577149	0.128894	0.94681
0.4375	0.6875	0.0857973	0.126639	0.948698
0.4375	0.71875	0.112957	0.123437	0.951103
0.4375	0.75	0.137472	0.117968	0.954116
0.4375	0.78125	0.160395	0.111081	0.95744
0.4375	0.8125	0.179652	0.101549	0.960826
0.4375	0.84375	0.197411	0.0900792	0.964199
0.4375	0.875	0.219329	0.074744	0.967002
0.4375	0.90625	0.261193	0.0562069	0.970056
0.4375	0.9375	0.388972	0.0316368	0.970246
0.4375	0.96875	0.632356	0.00744658	0.975169
0.4375	1	1	0	0.978485
0.46875	0	0	0	1.00136
0.46875	0.03125	-0.0305301	0.000659328	1.00144
0.46875	0.0625	-0.0593105	0.00202577	1.0014
0.46875	0.09375	-0.086453	0.00391599	1.00112
0.46875	0.125	-0.113743	0.00635971	1.00071
0.46875	0.15625	-0.140386	0.00979651	0.999571
0.46875	0.1875	-0.166911	0.0145021	0.998102
0.46875	0.21875	-0.190334	0.0210606	0.995436
0.46875	0.25	-0.210484	0.0292845	0.992061
0.46875	0.28125	-0.222527	0.0389052	0.987393
0.46875	0.3125	-0.22764	0.0495557	0.981868
0.46875	0.34375	-0.2217	0.0597523	0.975658
0.46875	0.375	-0.208536	0.0697627	0.969043
0.46875	0.40625	-0.186502	0.0777047	0.962757
0.46875	0.4375	-0.160311	0.0847526	0.956794
0.46875	0.46875	-0.130061	0.0896279	0.951904
0.46875	0.5	-0.0986954	0.0937532	0.947749
0.46875	0.53125	-0.0666586	0.0965242	0.944942
0.46875	0.5625	-0.0347202	0.0989503	0.942897
0.46875	0.59375	-0.00329337	0.100568	0.942194
0.46875	0.625	0.027882	0.101927	0.942151
0.46875	0.65625	0.058085	0.102343	0.943281
0.46875	0.6875	0.0878459	0.102208	0.944955
0.46875	0.71875	0.115823	0.100582	0.94747
0.46875	0.75	0.142782	0.0979429	0.950368
0.46875	0.78125	0.166755	0.0932161	0.953595
0.46875	0.8125	0.189048	0.0870344	0.956962
0.46875	0.84375	0.209137	0.0779041	0.960039
0.46875	0.875	0.232837	0.066552	0.963119
0.46875	0.90625	0.287461	0.0486378	0.964714
0.46875	0.9375	0.40271	0.029042	0.968831
0.46875	0.96875	0.654789	0.0100278	0.967581
0.46875	1	1	0	0.970941
0.5	0	0	0	1.00167
0.5	0.03125	-0.0314189	5.63593e-05	1.00167
0.5	0.0625	-0.0598249	-3.1733e-06	1.00157
0.5	0.09375	-0.0876207	-0.000195777	1.00138
0.5	0.125	-0.114994	-0.000292738	1.00068
0.5	0.15625	-0.143221	0.000139861	0.999803
0.5	0.1875	-0.170546	0.00196389	0.997858
0.5	0.21875	-0.196786	0.00518144	0.995395
0.5	0.25	-0.217321	0.0104568	0.99146
0.5	0.28125	-0.232278	0.0172348	0.986655
0.5	0.3125	-0.236194	0.0251075	0.98066
0.5	0.34375	-0.231827	0.0336428	0.973935
0.5	0.375	-0.216097	0.0413938	0.967094
0.5	0.40625	-0.19405	0.0487627	0.960221
0.5	0.4375	-0.165463	0.0543517	0.9543
0.5	0.46875	-0.134517	0.0592245	0.948981
0.5	0.5	-0.101944	0.0627629	0.945068
0.5	0.53125	-0.0693014	0.0659013	0.941936
0.5	0.5625	-0.0370632	0.0685096	0.940229
0.5	0.59375	-0.00508983	0.0710047	0.939218
0.5	0.625	0.0262005	0.0732164	0.939488
0.5	0.65625	0.0573427	0.0752219	0.940327
0.5	0.6875	0.0874579	0.0765847	0.942193
0.5	0.71875	0.117113	0.077343	0.944483
0.5	0.75	0.144728	0.0768338	0.947378
0.5	0.78125	0.171182	0.0752112	0.950478
0.5	0.8125	0.194669	0.0716194	0.953626
0.5	0.84375	0.217569	0.0661496	0.956676
0.5	0.875	0.24745	0.0566171	0.959143
0.5	0.90625	0.299502	0.0435738	0.962034
0.5	0.9375	0.432677	0.0244963	0.96213
0.5	0.96875	0.666026	0.00548964	0.966702
0.5	1	1	0	0.969331
0.53125	0	0	0	1.00206
0.53125	0.03125	-0.0305989	-0.000581993	1.00198
0.53125	0.0625	-0.0589831	-0.00210268	1.00189
0.53125	0.09375	-0.085939	-0.00459529	1.00151
0.53125	0.125	-0.113851	-0.00744825	1.00105
0.53125	0.15625	-0.142346	-0.00991197	0.9998
0.53125	0.1875	-0.17176	-0.0117076	0.998225
0.53125	0.21875	-0.198678	-0.0116517	0.995242
0.53125	0.25	-0.222538	-0.0101703	0.991546
0.53125	0.28125	-0.237311	-0.00647239	0.986238
0.53125	0.3125	-0.244236	-0.00138022	0.980046
0.53125	0.34375	-0.238263	0.0046991	0.973057
0.53125	0.375	-0.223848	0.0113186	0.965651
0.53125	0.40625	-0.199609	0.017226	0.958824
0.53125	0.4375	-0.170842	0.022826	0.952341
0.53125	0.46875	-0.13848	0.0272049	0.947277
0.53125	0.5	-0.105369	0.0311631	0.942962
0.53125	0.53125	-0.0723994	0.0345336	0.940178
0.53125	0.5625	-0.0398374	0.0377884	0.938145
0.53125	0.59375	-0.00803871	0.041075	0.937482
0.53125	0.625	0.0236067	0.0443895	0.937437
0.53125	0.65625	0.0546474	0.0477499	0.938541
0.53125	0.6875	0.0856324	0.0509308	0.940121
0.53125	0.71875	0.115491	0.0536803	0.942516
0.53125	0.75	0.144797	0.0558114	0.945199
0.53125	0.78125	0.171841	0.0567758	0.948193
0.53125	0.8125	0.197831	0.0565245	0.951212
0.53125	0.84375	0.223481	0.0535958	0.953949
0.53125	0.875	0.254982	0.0481746	0.956686
0.53125	0.90625	0.320075	0.0359119	0.957983
0.53125	0.9375	0.442786	0.0214674	0.961892
0.53125	0.96875	0.683658	0.007254	0.960927
0.53125	1	1	0	0.963785
0.5625	0	0	0	1.00278
0.5625	0.03125	-0.0292084	-0.000888281	1.00238
0.5625	0.0625	-0.0556479	-0.00429034	1.00215
0.5625	0.09375	-0.0820938	-0.00891101	1.00189
0.5625	0.125	-0.109413	-0.0144137	1.00119
0.5625	0.15625	-0.138742	-0.0201947	1.0003
0.5625	0.1875	-0.168526	-0.0251297	0.998318
0.5625	0.21875	-0.198172	-0.0293356	0.995834
0.5625	0.25	-0.2224	-0.0312342	0.991634
0.5625	0.28125	-0.241096	-0.0316287	0.986605
0.5625	0.3125	-0.247556	-0.0294575	0.980052
0.5625	0.34375	-0.244695	-0.0257743	0.972804
0.5625	0.375	-0.228886	-0.020913	0.965377
0.5625	0.40625	-0.205706	-0.0153986	0.957949
0.5625	0.4375	-0.175549	-0.0102989	0.951722
0.5625	0.46875	-0.142905	-0.0053023	0.946115
0.5625	0.5	-0.109273	-0.00101169	0.942161
0.5625	0.53125	-0.0759349	0.00312552	0.938993
0.5625	0.5625	-0.0436061	0.00718095	0.937325
0.5625	0.59375	-0.011719	0.0113318	0.936344
0.5625	0.625	0.0194886	0.0158646	0.936613
0.5625	0.65625	0.0507403	0.0205344	0.937421
0.5625	0.6875	0.0814595	0.025491	0.9392
0.5625	0.71875	0.112145	0.0303052	0.941339
0.5625	0.75	0.141529	0.0348542	0.944039
0.5625	0.78125	0.170316	0.0387102	0.946841
0.5625	0.8125	0.197462	0.0412164	0.949675
0.5625	0.84375	0.225524	0.0418792	0.952331
0.5625	0.875	0.264166	0.0381644	0.95443
0.5625	0.90625	0.327064	0.0306489	0.957123
0.5625	0.9375	0.465774	0.0171063	0.957203
0.5625	0.96875	0.690372	0.00355314	0.961448
0.5625	1	1	0	0.96326
0.59375	0	0	0	1.0028
0.59375	0.03125	-0.0261573	-0.00185323	1.00255
0.59375	0.0625	-0.0509234	-0.00621868	1.00244
0.59375	0.09375	-0.0756705	-0.0129032	1.00205
0.59375	0.125	-0.10242	-0.0209093	1.00161
0.59375	0.15625	-0.131376	-0.0294361	1.00048
0.59375	0.1875	-0.162422	-0.0383009	0.999022
0.59375	0.21875	-0.192271	-0.0458914	0.996137
0.59375	0.25	-0.220086	-0.0527131	0.992602
0.59375	0.28125	-0.238996	-0.0565514	0.987144
0.59375	0.3125	-0.250092	-0.0585673	0.98091
0.59375	0.34375	-0.247014	-0.0573491	0.973477
0.59375	0.375	-0.234358	-0.0542701	0.965725
0.59375	0.40625	-0.210458	-0.0496399	0.958465
0.59375	0.4375	-0.181065	-0.0441361	0.951604
0.59375	0.46875	-0.147853	-0.038787	0.946356
0.59375	0.5	-0.113852	-0.0333433	0.941873
0.59375	0.53125	-0.0805941	-0.0282992	0.939084
0.59375	0.5625	-0.0480645	-0.0231914	0.937052
0.59375	0.59375	-0.0167265	-0.0178685	0.93641
0.59375	0.625	0.0143687	-0.0122669	0.93639
0.59375	0.65625	0.0449825	-0.00603213	0.937463
0.59375	0.6875	0.0757933	0.000471808	0.938989
0.59375	0.71875	0.106048	0.00744714	0.941263
0.59375	0.75	0.136264	0.0143348	0.943755
0.59375	0.78125	0.165281	0.020889	0.946514
0.59375	0.8125	0.194299	0.0265059	0.949188
0.59375	0.84375	0.22579	0.0295563	0.9516
0.59375	0.875	0.265863	0.029823	0.954012
0.59375	0.90625	0.341852	0.0231654	0.9551
0.59375	0.9375	0.471905	0.013912	0.958735
0.59375	0.96875	0.703955	0.00453993	0.957916
0.59375	1	1	0	0.960411
0.625	0	0	0	1.00366
0.625	0.03125	-0.0225268	-0.0016726	1.00293
0.625	0.0625	-0.0443228	-0.00777482	1.00263
0.625	0.09375	-0.0672628	-0.0159869	1.00233
0.625	0.125	-0.0927505	-0.0260929	1.00177
0.625	0.15625	-0.12122	-0.0375131	1.00099
0.625	0.1875	-0.151786	-0.0492788	0.999325
0.625	0.21875	-0.183524	-0.061522	0.997176
0.625	0.25	-0.211367	-0.07195	0.993285
0.625	0.28125	-0.235011	-0.0813647	0.988693
0.625	0.3125	-0.246644	-0.08672	0.982125
0.625	0.34375	-0.248941	-0.0896551	0.975045
0.625	0.375	-0.236795	-0.0884382	0.967232
0.625	0.40625	-0.21595	-0.0848998	0.959579
0.625	0.4375	-0.186622	-0.0794691	0.952967
0.625	0.46875	-0.153827	-0.072964	0.947054
0.625	0.5	-0.119845	-0.0665467	0.942944
0.625	0.53125	-0.0861529	-0.0598652	0.93964
0.625	0.5625	-0.0540448	-0.0534849	0.937961
0.625	0.59375	-0.0226746	-0.0468225	0.936989
0.625	0.625	0.00764405	-0.0397614	0.937267
0.625	0.65625	0.0379579	-0.0322075	0.938101
0.625	0.6875	0.0679302	-0.0238158	0.939843
0.625	0.71875	0.0981942	-0.0150077	0.941929
0.625	0.75	0.127951	-0.0056646	0.944509
0.625	0.78125	0.157915	0.0034873	0.947114
0.625	0.8125	0.188299	0.0116945	0.94973
0.625	0.84375	0.221754	0.018096	0.952108
0.625	0.875	0.269829	0.0198045	0.953987
0.625	0.90625	0.343854	0.0176047	0.956588
0.625	0.9375	0.487998	0.00951876	0.956829
0.625	0.96875	0.705395	0.00161859	0.960901
0.625	1	1	0	0.961824
0.65625	0	0	0	1.00317
0.65625	0.03125	-0.0180369	-0.00263943	1.00281
0.65625	0.0625	-0.0366546	-0.00876309	1.00269
0.65625	0.09375	-0.0573975	-0.0181557	1.00238
0.65625	0.125	-0.080924	-0.0297487	1.00199
0.65625	0.15625	-0.108119	-0.0431216	1.00118
0.65625	0.1875	-0.13829	-0.0581921	1.00002
0.65625	0.21875	-0.169225	-0.0735122	0.997721
0.65625	0.25	-0.199902	-0.0894249	0.994841
0.65625	0.28125	-0.223742	-0.102613	0.989958
0.65625	0.3125	-0.241469	-0.114263	0.98448
0.65625	0.34375	-0.245137	-0.120373	0.977109
0.65625	0.375	-0.239005	-0.123307	0.969678
0.65625	0.40625	-0.219619	-0.121086	0.961972
0.65625	0.4375	-0.193101	-0.116123	0.954906
0.65625	0.46875	-0.160996	-0.109087	0.94922
0.65625	0.5	-0.127091	-0.100802	0.944422
0.65625	0.53125	-0.0937488	-0.0927419	0.941451
0.65625	0.5625	-0.0611886	-0.0842054	0.93928
0.65625	0.59375	-0.0304653	-0.0760066	0.938618
0.65625	0.625	-0.000291981	-0.0672412	0.938616
0.65625	0.65625	0.0290205	-0.0579683	0.939708
0.65625	0.6875	0.0585286	-0.0479322	0.941287
0.65625	0.71875	0.0878222	-0.0369758	0.943557
0.65625	0.75	0.117595	-0.0254988	0.94603
0.65625	0.78125	0.147635	-0.0138507	0.948734
0.65625	0.8125	0.179234	-0.00281586	0.951279
0.65625	0.84375	0.216892	0.0056068	0.953616
0.65625	0.875	0.266087	0.0111264	0.955955
0.65625	0.90625	0.352868	0.00998352	0.957151
0.65625	0.9375	0.489901	0.00605111	0.960685
0.65625	0.96875	0.715691	0.00168725	0.959984
0.65625	1	1	0	0.962376
0.6875	0	0	0	1.00381
0.6875	0.03125	-0.0131062	-0.00194518	1.00297
0.6875	0.0625	-0.0285374	-0.00904713	1.00267
0.6875	0.09375	-0.0462683	-0.0187648	1.00236
0.6875	0.125	-0.0678976	-0.0312912	1.00201
0.6875	0.15625	-0.0928405	-0.0461848	1.00139