TITLE = "SOLUTION_FIELD"
VARIABLES = "x" "y" "u" "v" "p"
ZONE N=853, E=1544, F=FEPOINT, ET=TRIANGLE
0	0	1	0	14.118
0	0.125	1	0	7.3966
0	0.25	1	0	3.5342
0	0.375	1	0	3.22086
0	0.5	1	0	3.06593
0	0.625	1	0	3.16975
0	0.75	1	0	3.16567
0	0.875	1	0	3.14223
0	1	1	0	3.09072
0	1.125	1	0	3.13994
0	1.25	1	0	3.17066
0	1.375	1	0	3.18169
0	1.5	1	0	3.08871
0	1.625	1	0	3.28357
0	1.75	1	0	3.57707
0	1.875	1	0	7.44361
0	2	1	0	14.118
0.146079	0.815664	1.01588	0.0328309	3.18509
0.147709	1.18123	1.01549	-0.0308783	3.18315
0.151064	0.998456	1.00617	0.000423815	3.13508
0.153645	1.51096	1.02375	-0.132715	3.32825
0.15625	0	0	0	5.1806
0.15625	2	0	0	5.10724
0.156539	0.650199	1.01819	0.0819272	3.2159
0.156759	0.482216	1.02564	0.141113	3.35307
0.158233	1.34454	1.01766	-0.0787935	3.2058
0.163688	1.68157	1.07947	-0.261266	3.64361
0.165115	1.84638	1.25747	-0.458673	3.52218
0.171188	0.153461	1.25467	0.454014	3.52589
0.171879	0.312381	1.09599	0.283015	3.69622
0.269274	0.883944	1.04341	0.034738	3.13248
0.270314	1.11308	1.04375	-0.0329331	3.13618
0.299066	0.730143	1.07119	0.0928618	3.1233
0.30479	1.26739	1.07119	-0.0944365	3.12026
0.311289	1.59534	1.17097	-0.299797	3.04904
0.3125	0	0	0	2.66989
0.3125	2	0	0	2.75969
0.313105	0.567527	1.10164	0.157588	3.22937
0.31326	1.42705	1.10218	-0.1578	3.24402
0.315901	1.77834	1.14012	-0.227956	3.81325
0.321124	0.397174	1.17928	0.296158	3.00603
0.339014	0.204966	1.07079	0.155393	3.75382
0.349503	0.999608	1.06528	0.000701672	3.10675
0.42444	0.849889	1.09957	0.0589742	3.12389
0.42669	1.15215	1.10089	-0.0600135	3.11705
0.455104	0.686542	1.14391	0.141751	3.05968
0.462155	1.66145	1.18671	-0.229349	3.05862
0.466258	1.48802	1.17631	-0.197646	3.18886
0.468333	1.31858	1.15309	-0.142381	3.06424
0.46875	0	0	0	2.46679
0.46875	2	0	0	2.92421
0.470018	1.8354	0.80397	-0.0409656	2.96129
0.474897	0.515365	1.17316	0.188376	3.23811
0.475193	0.340043	1.16693	0.232596	3.00208
0.508088	0.162909	0.763575	0.0263052	3.11926
0.510483	1.00156	1.13006	0.000505144	3.03013
0.578595	0.833563	1.1692	0.0693886	3.06973
0.581922	1.16956	1.17247	-0.0718185	3.06571
0.608358	0.657655	1.2127	0.154101	2.95868
0.614793	1.53494	1.21114	-0.171536	3.07885
0.619086	1.71328	0.993009	-0.115832	2.98547
0.625	0	0	0	2.88091
0.625	2	0	0	2.84041
0.62816	0.293745	1.0022	0.134585	2.93217
0.636097	1.869	0.534854	-0.014584	3.04946
0.639391	1.34227	1.22536	-0.147723	2.95748
0.641911	0.480738	1.20876	0.161725	3.06439
0.665278	1.00023	1.1962	0.00150581	2.97494
0.669864	0.139996	0.569792	0.0284315	3.01136
0.73974	0.834655	1.23699	0.0648545	2.99566
0.741168	1.16225	1.23814	-0.0673213	2.98512
0.761347	0.352943	1.05352	0.105786	2.92118
0.761632	1.46046	1.23333	-0.141455	2.92249
0.762024	0.666535	1.25207	0.126672	2.91443
0.762823	1.62724	1.09103	-0.107384	2.89554
0.78125	0	0	0	2.80845
0.78125	2	0	0	2.81788
0.79552	1.8187	0.655476	-0.0323434	2.85986
0.815466	0.184187	0.659192	0.0339463	2.87799
0.818933	0.500882	1.2148	0.124481	2.89193
0.822879	1.31566	1.27258	-0.108834	2.92209
0.828081	0.992553	1.26586	0.00497805	2.89843
0.897565	1.6879	0.936091	-0.0674425	2.83918
0.907253	1.15881	1.30192	-0.0576467	2.88626
0.908377	0.643646	1.27445	0.105288	2.86203
0.914187	0.819014	1.30177	0.0613719	2.89096
0.916944	0.337573	0.98495	0.0743622	2.80105
0.917255	1.51093	1.19589	-0.101204	2.85782
0.9375	0	0	0	2.71478
0.9375	2	0	0	2.73441
0.975674	1.84003	0.534755	-0.0137533	2.82253
0.979495	0.172601	0.572965	0.0155321	2.81487
0.9868	1.33499	1.2966	-0.0881531	2.80693
0.987744	0.490627	1.18515	0.0875364	2.83057
0.989526	0.993207	1.32463	0.00280639	2.83784
1.04174	1.66746	0.946464	-0.0535488	2.74007
1.05035	0.671648	1.30563	0.0795181	2.78158
1.06725	1.16754	1.34441	-0.045763	2.81144
1.08563	1.49795	1.18898	-0.0729794	2.78209
1.09173	0.327252	0.924795	0.0482055	2.72848
1.09259	0.84063	1.35141	0.0418326	2.79376
1.09375	0	0	0	2.67241
1.09375	2	0	0	2.69178
1.12976	0.147704	0.471632	0.00724332	2.73288
1.13614	0.514682	1.19838	0.0683421	2.7495
1.13769	1.83076	0.53557	-0.0116441	2.7224
1.14999	1.0078	1.37369	-0.00215781	2.76148
1.15236	1.33421	1.31161	-0.0655539	2.74721
1.19646	1.66219	0.924245	-0.0370376	2.70344
1.2112	0.696527	1.32984	0.0556939	2.72302
1.23191	1.17794	1.37644	-0.0367941	2.72587
1.25	0	0	0	2.65921
1.25	2	0	0	2.64718
1.25038	1.49549	1.17976	-0.0524148	2.69537
1.25726	0.383658	0.996942	0.0388508	2.68496
1.25753	0.214118	0.637899	0.0148841	2.6744
1.26861	0.861575	1.38928	0.0274624	2.71355
1.27914	0.548094	1.22148	0.0519904	2.68839
1.29535	1.82975	0.517787	-0.00682215	2.66538
1.29857	1.03268	1.40519	-0.00678263	2.70054
1.31824	1.33093	1.32399	-0.0478557	2.67766
1.35413	1.66427	0.89908	-0.0260062	2.63897
1.39024	0.65583	1.31677	0.0412323	2.65022
1.4047	0.134012	0.405047	0.00199498	2.60786
1.40625	0	0	0	2.59143
1.40625	2	0	0	2.60061
1.41018	1.16346	1.40735	-0.0254424	2.65175
1.41145	1.50126	1.16076	-0.0362518	2.63842
1.41203	0.300307	0.817672	0.0178906	2.62346
1.41437	0.47341	1.12471	0.0355482	2.62577
1.4199	0.812453	1.39806	0.0271632	2.64606
1.42784	0.968418	1.42884	0.00525611	2.64369
1.45278	1.83182	0.498083	-0.00508182	2.60612
1.47047	1.3418	1.32332	-0.0354066	2.62035
1.51442	1.66772	0.875713	-0.0183967	2.58429
1.54512	0.71653	1.36217	0.0267867	2.59627
1.55651	1.05225	1.44491	-0.00633045	2.59458
1.559	0.390925	0.982031	0.0208557	2.57342
1.56075	0.562554	1.22922	0.0283284	2.5769
1.5625	0	0	0	2.56747
1.5625	2	0	0	2.55585
1.563	0.19673	0.562813	0.00583612	2.5657
1.57412	1.51275	1.13464	-0.0249127	2.5673
1.57615	1.21217	1.4049	-0.0217364	2.58484
1.58094	0.871671	1.43726	0.0148655	2.58794
1.61027	1.82703	0.500933	-0.00402046	2.55358
1.61937	1.3725	1.29422	-0.0258656	2.55912
1.68398	0.314927	0.826412	0.0106106	2.52927
1.68449	1.653	0.892699	-0.0140286	2.52679
1.70059	0.684824	1.34941	0.0205505	2.5315
1.70321	0.980473	1.46176	0.00169808	2.54131
1.71755	1.12056	1.44887	-0.0101248	2.53466
1.71875	0	0	0	2.49534
1.71875	2	0	0	2.5057
1.72521	0.490642	1.13467	0.0182029	2.52251
1.73506	1.28712	1.36985	-0.0189706	2.52153
1.74147	0.1553	0.449686	0.00241142	2.50379
1.74842	0.844996	1.43784	0.0115634	2.51931
1.75188	1.47818	1.17836	-0.0184658	2.52081
1.76037	1.81713	0.521674	-0.00277424	2.51093
1.83101	0.325836	0.841728	0.0077704	2.47185
1.84969	0.627588	1.2954	0.015899	2.48022
1.85625	1.16266	1.4441	-0.00930566	2.48887
1.85949	1.64356	0.904448	-0.00912649	2.46379
1.873	0.985278	1.47801	0.000666554	2.47648
1.875	0	0	0	2.46915
1.875	2	0	0	2.44518
1.8814	1.32803	1.33898	-0.0153655	2.46383
1.88203	0.78909	1.42216	0.0114449	2.48094
1.89915	1.81893	0.50874	-0.00157201	2.461
1.90694	0.483361	1.11763	0.0122543	2.46586
1.91292	1.47534	1.17451	-0.0129551	2.46369
1.91751	0.164973	0.467588	0.00258934	2.45854
1.99527	0.326289	0.838251	0.00601362	2.43332
1.99757	1.18345	1.43911	-0.00763196	2.43714
2.02094	0.672779	1.3445	0.0115789	2.42101
2.02132	0.862656	1.46052	0.00557911	2.42564
2.02996	1.71315	0.751547	-0.00442972	2.41576
2.03111	1.55743	1.05075	-0.0080509	2.41846
2.03125	0	0	0	2.40535
2.03125	2	0	0	2.40982
2.03341	1.02882	1.4844	-0.00166617	2.42503
2.03748	1.87775	0.350438	-0.000490772	2.41389
2.04785	1.34567	1.32833	-0.0114536	2.41928
2.06766	0.492554	1.12838	0.00893792	2.40694
2.08479	0.162441	0.458197	0.000979436	2.39723
2.15446	1.46759	1.18177	-0.00820213	2.37677
2.15712	0.321123	0.821974	0.00434471	2.37128
2.16046	1.15019	1.46233	-0.00530651	2.37676
2.17218	0.956397	1.48895	0.00182756	2.38441
2.17445	0.787178	1.42826	0.0060382	2.37707
2.17692	1.81347	0.516339	-0.0024317	2.36829
2.1875	0	0	0	2.36626
2.1875	2	0	0	2.38284
2.19104	0.62199	1.29158	0.00796636	2.37536
2.19524	1.63905	0.904638	-0.00446093	2.37464
2.22102	0.4631	1.0774	0.00521864	2.36026
2.22309	1.31768	1.35189	-0.00609818	2.36365
2.24955	0.169194	0.473466	0.00125272	2.35273
2.29773	1.0419	1.49018	-0.00125326	2.33668
2.30945	1.48467	1.15703	-0.00635525	2.32209
2.33102	1.18682	1.44771	-0.00467039	2.33454
2.33424	0.717968	1.38349	0.00517682	2.32439
2.33466	0.341908	0.86292	0.00355673	2.32336
2.33478	0.882877	1.47676	0.00265798	2.32691
2.33654	1.81153	0.523632	8.87765e-05	2.30626
2.34375	0	0	0	2.31323
2.34375	2	0	0	2.30202
2.35355	0.53377	1.18298	0.00511887	2.31193
2.36154	1.63625	0.902737	-0.00258011	2.31765
2.39476	1.34597	1.32599	-0.00340128	2.30533
2.40329	0.163309	0.456273	0.000239994	2.29823
2.45704	1.01969	1.50088	-0.000908218	2.28578
2.4697	0.641543	1.31187	0.00444675	2.28632
2.48314	1.18703	1.44741	-0.00349276	2.27704
2.48728	0.31075	0.794501	0.00164706	2.27387
2.49358	1.50662	1.12512	-0.00302929	2.27597
2.49754	0.812177	1.45067	0.00303869	2.27488
2.5	0	0	0	2.26914
2.5	2	0	0	2.2722
2.50157	1.86274	0.38603	-0.000165784	2.28245
2.50399	1.69673	0.780709	-0.00206289	2.27202
2.5198	0.474017	1.09587	0.00346911	2.27104
2.55037	1.32737	1.34681	-0.00408297	2.26102
2.56063	0.158778	0.442949	0.000359574	2.25655
2.59488	0.949081	1.49552	0.00132016	2.24342
2.61378	0.656479	1.33022	0.00288311	2.23124
2.62603	1.11491	1.48398	-0.00199397	2.23527
2.64788	0.319948	0.815405	0.00180053	2.22208
2.65061	1.61108	0.947163	-0.00122452	2.21859
2.65625	0	0	0	2.21894
2.65625	2	0	0	2.22165
2.65892	1.78908	0.574607	-0.000919512	2.22111
2.6644	1.43461	1.22382	-0.00331942	2.22671
2.68093	0.810609	1.45002	0.00173219	2.224
2.6888	0.503083	1.13615	0.00330519	2.21262
2.69544	1.26705	1.39474	-0.0023961	2.20426
2.707	0.148883	0.416166	-3.86849e-05	2.21187
2.74958	0.977137	1.50243	-0.000195591	2.19185
2.78344	0.664315	1.33654	0.00233869	2.1834
2.79035	1.51685	1.10616	-0.00243037	2.18843
2.79556	0.369801	0.90893	0.000412115	2.18356
2.80298	1.14492	1.47337	-0.000592294	2.18954
2.80415	1.86119	0.389525	0.000129453	2.16952
2.8125	0	0	0	2.16934
2.8125	2	0	0	2.17472
2.82308	1.68695	0.800375	-0.000706014	2.18009
2.83355	0.205113	0.558026	0.000237033	2.16905
2.84085	1.33489	1.33924	-0.00266018	2.16471
2.84909	0.822501	1.45875	0.000982247	2.16626
2.85875	0.517209	1.15886	0.00190346	2.17036
2.90704	0.9942	1.50553	-8.27634e-05	2.14931
2.93278	1.49087	1.14795	-0.00223635	2.13401
2.95317	0.32729	0.826911	7.92302e-05	2.12508
2.96236	1.16955	1.46233	-0.00117847	2.12373
2.9639	1.82617	0.481136	-0.00135606	2.13631
2.96669	0.662131	1.33658	0.0018322	2.12618
2.96875	0	0	0	2.12424
2.96875	2	0	0	2.14109
2.99427	0.157644	0.440224	0.000402711	2.12019
2.99528	1.64945	0.87432	-0.00345718	2.1203
2.99935	0.473461	1.08834	0.00043033	2.1157
3.0049	0.837856	1.46765	0.000524556	2.11928
3.01179	1.32813	1.34473	-0.00157806	2.12403
3.05978	1.02173	1.50474	0.000265191	2.10257
3.09084	1.48822	1.14749	-0.00139694	2.08534
3.11011	0.548355	1.20029	0.000755109	2.08987
3.116	1.7773	0.600457	-0.000803764	2.08107
3.125	0	0	0	2.0863
3.125	2	0	0	2.08004
3.13139	0.346162	0.868273	0.00183379	2.08285
3.13827	1.18389	1.45672	-0.00120942	2.07761
3.14251	0.876052	1.48149	0.000508159	2.07272
3.14991	0.710318	1.38246	0.00059074	2.07677
3.15399	0.159527	0.442695	0.000629206	2.07738
3.1603	1.61768	0.930774	-0.00176113	2.06989
3.16788	1.35466	1.31637	-0.000793783	2.06575
3.22074	1.01326	1.5052	-0.000241636	2.05383
3.23092	1.85841	0.39351	-8.39487e-06	2.03703
3.25702	0.536529	1.18428	0.000562121	2.02706
3.28022	1.49021	1.15066	-0.00140862	2.03845
3.28125	0	0	0	2.03006
3.28125	2	0	0	2.03347
3.28766	1.69225	0.786581	0.000871092	2.03438
3.28788	0.845887	1.47155	0.00110944	2.02966
3.2896	0.214838	0.580987	-0.000192908	2.02667
3.29604	1.28791	1.38292	-0.0010503	2.02963
3.29866	0.387772	0.940849	0.00217027	2.03348
3.30342	1.13849	1.47523	-0.000480099	2.02451
3.32451	0.683091	1.35757	-0.000400794	2.02888
3.38382	1.83693	0.451083	-0.000274993	2.00259
3.3895	1.00008	1.5067	-0.000875135	2.00345
3.42941	1.34245	1.32885	-0.00126951	1.98254
3.4328	0.311351	0.794136	0.000653294	1.98645
3.43469	1.49006	1.14472	-0.00081759	1.99039
3.43677	0.136946	0.382348	5.55067e-05	1.98473
3.4375	0	0	0	1.98475
3.4375	2	0	0	1.98511
3.43929	0.514939	1.15566	0.000427273	1.98567
3.4487	0.84695	1.47169	0.000923388	1.97655
3.45152	1.66453	0.844412	0.000884199	1.97409
3.46068	1.17335	1.4643	7.36566e-05	1.98123
3.47022	0.69141	1.36331	0.000159668	1.97565
3.5424	1.83443	0.457731	-3.14648e-05	1.95264
3.55583	1.00271	1.50706	-0.000281311	1.94906
3.56357	0.384356	0.934499	-0.000647822	1.94184
3.56597	1.52532	1.09136	-5.92828e-05	1.9484
3.58039	0.216049	0.583271	0.00126856	1.94885
3.59375	0	0	0	1.94237
3.59375	2	0	0	1.94035
3.59377	1.34444	1.33295	-0.00033605	1.93843
3.59669	0.66073	1.33231	0.00113708	1.93148
3.61324	0.832214	1.46814	0.000153336	1.93965
3.6188	1.16325	1.46702	-0.000555691	1.93201
3.62607	1.68311	0.804161	0.000646908	1.93402
3.62635	0.519862	1.162	-2.96381e-05	1.94205
3.70757	1.52046	1.09934	-0.000468721	1.89799
3.71992	1.8364	0.452377	0.000791838	1.89461
3.72019	0.176739	0.486819	-0.000165272	1.89402
3.72723	0.359051	0.88963	-0.00081363	1.89184
3.73765	1.02893	1.50783	3.89846e-05	1.89143
3.74618	0.696529	1.37067	0.00045788	1.88914
3.75	0	0	0	1.88044
3.75	2	0	0	1.89011
3.75796	1.36882	1.29927	-0.000224368	1.88889
3.76519	1.21319	1.43835	-0.00061475	1.88564
3.76961	0.864234	1.47776	0.000294281	1.88325
3.77668	0.52169	1.16129	-0.00049917	1.87435
3.79191	1.67472	0.821821	0.000588025	1.87902
3.85318	0.1343	0.373794	-0.000518274	1.86453
3.86718	1.49731	1.13486	6.99425e-05	1.8612
3.8774	0.287984	0.741519	-0.00105241	1.85536
3.8944	0.618129	1.28501	0.000220553	1.85326
3.90017	1.12148	1.48591	-0.000442036	1.84942
3.90625	0	0	0	1.84864
3.90625	2	0	0	1.84514
3.90971	0.94703	1.50291	0.000144049	1.84466
3.91201	1.8262	0.481686	-7.84965e-05	1.8443
3.91483	0.775078	1.43077	0.000194792	1.84395
3.91669	1.31898	1.35768	0.000145934	1.84313
3.92746	0.452157	1.05699	0.000491702	1.84551
3.93873	1.65023	0.868762	-0.000691782	1.83405
4.00061	0.155913	0.433045	0.000278338	1.81192
4.03138	1.50163	1.12711	-0.000397022	1.79825
4.04281	1.2063	1.4432	-1.81422e-05	1.8018
4.0461	0.642365	1.31753	0.000238719	1.79455
4.0479	0.315287	0.801426	-0.000171817	1.80313
4.05246	1.02222	1.50716	-0.000400176	1.7981
4.0625	0	0	0	1.80062
4.0625	2	0	0	1.80089
4.07361	0.841974	1.472	-0.000434628	1.79379
4.0806	1.36648	1.30218	0.000573322	1.79151
4.0862	1.65976	0.852486	-0.00143166	1.79322
4.09316	0.47665	1.09272	0.000719105	1.78165
4.09838	1.83552	0.454456	-0.000251171	1.7874
4.15935	0.167231	0.461846	0.000985233	1.76897
4.16938	1.12945	1.48078	-0.000110044	1.76852
4.18937	0.690133	1.36061	3.56179e-05	1.75983
4.20847	1.29496	1.37683	-3.40635e-05	1.75318
4.21419	0.34304	0.857722	8.04033e-05	1.74982
4.21875	0	0	0	1.75452
4.21875	2	0	0	1.74435
4.22026	1.48604	1.15537	2.18633e-06	1.75324
4.22688	0.979848	1.50848	0.000415037	1.74796
4.22833	1.70445	0.76097	-0.00154585	1.74347
4.24193	0.826032	1.4605	-0.000748455	1.7473
4.2444	0.530052	1.17654	0.000129501	1.7509
4.26379	1.86161	0.385092	0.000317162	1.74445
4.31076	1.15583	1.4709	0.000248097	1.71862
4.32607	0.192433	0.527632	-3.27809e-05	1.71762
4.34164	1.61206	0.940187	0.00041968	1.70696
4.36429	0.697244	1.37078	-4.4654e-05	1.69864
4.365	1.31926	1.35426	-0.000832053	1.70173
4.37441	0.374078	0.917416	-0.000631496	1.69767
4.375	0	0	0	1.6904
4.375	2	0	0	1.69718
4.38825	1.02496	1.50396	0.000165715	1.69694
4.38906	0.876837	1.48495	-0.000214328	1.70013
4.39509	1.786	0.577586	-0.000196618	1.69759
4.40175	0.534673	1.17947	-3.40995e-07	1.69422
4.41641	1.47431	1.16873	-0.000151117	1.69468
4.47188	1.16682	1.46599	-7.18633e-05	1.67895
4.47316	0.140637	0.390241	-0.000744528	1.6738
4.49785	1.64821	0.875397	0.00071536	1.66812
4.52014	0.794933	1.44463	0.000194556	1.66207
4.52139	0.28905	0.743115	2.86664e-06	1.65977
4.53125	0	0	0	1.66029
4.53125	2	0	0	1.6532
4.53357	1.32863	1.34502	-0.000179841	1.65445
4.53387	0.624538	1.29471	-0.000585894	1.6575
4.54337	0.99036	1.50975	5.21815e-05	1.64963
4.5453	0.448115	1.04769	5.83017e-05	1.65242
4.55943	1.83309	0.462813	-3.37483e-05	1.64273
4.585	1.49524	1.13882	0.000874351	1.63581
4.62775	1.16932	1.46569	-0.000330247	1.62319
4.63834	0.164848	0.456763	0.000206767	1.62331
4.65637	1.67319	0.823416	0.000361853	1.61341
4.66183	0.869066	1.47973	2.7873e-05	1.61372
4.67472	0.713161	1.38395	0.000216829	1.61562
4.6875	0	0	0	1.61296
4.6875	2	0	0	1.61545
4.68886	0.534007	1.18014	-0.000769743	1.60122
4.69957	0.345696	0.864846	-0.000142832	1.60788
4.70346	1.34469	1.32949	-0.000567764	1.60984
4.71603	1.01371	1.50808	-0.000454571	1.60585
4.73717	1.83252	0.461897	-0.000427237	1.5976
4.73836	1.51953	1.10277	0.000232113	1.5969
4.78868	1.16932	1.46561	0.000696579	1.57557
4.80555	0.163964	0.453624	-0.000514149	1.56478
4.81062	0.657488	1.32972	0.000192203	1.57859
4.82407	0.834963	1.4684	5.07331e-05	1.56039
4.83015	1.66715	0.838264	-0.000542349	1.57066
4.84375	0	0	0	1.56282
4.84375	2	0	0	1.55799
4.85348	0.49095	1.11986	0.000185068	1.55937
4.85992	1.31712	1.35736	-0.00034488	1.54875
4.86879	0.313299	0.795198	-0.00146437	1.55793
4.87419	1.0037	1.50905	-0.000609497	1.55405
4.8928	1.48637	1.15157	-1.84722e-05	1.54511
4.90057	1.83136	0.466014	0.000190334	1.54656
4.94681	0.693464	1.36756	0.000466923	1.52755
4.95667	1.16985	1.46302	8.29521e-06	1.52919
4.99887	0.175883	0.486838	-0.000330599	1.51431
5	0	0	0	1.51673
5	2	0	0	1.50881
5.00401	0.851848	1.47526	-0.000626019	1.51454
5.00474	0.387045	0.942076	0.000388603	1.51303
5.00558	1.67369	0.825096	-0.00107693	1.50299
5.01245	0.542766	1.18938	0.000700706	1.50833
5.01458	1.32925	1.34602	-0.000545029	1.51714
5.01759	1.02335	1.50573	-4.57985e-06	1.50821
5.04896	1.85289	0.408501	-0.000273424	1.51019
5.05334	1.49443	1.13993	0.000602698	1.50228
5.10479	0.673425	1.34752	-0.00088519	1.48189
5.12768	0.306466	0.781127	0.00130076	1.47704
5.13511	1.14558	1.47816	-0.000193715	1.46975
5.14319	0.966107	1.50431	0.00145689	1.47086
5.15625	0	0	0	1.46663
5.15625	2	0	0	1.46292
5.16702	1.77992	0.592329	0.000223488	1.46326
5.16941	0.486205	1.11102	-2.06906e-05	1.46377
5.16944	1.3116	1.36156	-0.000544602	1.45528
5.17446	1.61855	0.930177	-2.11987e-05	1.46632
5.17893	0.820184	1.46148	0.000158456	1.4679
5.19699	0.16016	0.443853	0.000654606	1.463
5.20414	1.46214	1.18292	-0.000729977	1.45076
5.25762	0.656576	1.3319	0.000322952	1.43651
5.28216	1.01812	1.50968	0.000607304	1.4255
5.28669	0.332047	0.835184	0.000926699	1.42052
5.30034	1.87021	0.362764	1.41789e-05	1.41643
5.30224	1.19603	1.44938	-0.000172456	1.42662
5.3125	0	0	0	1.41639
5.3125	2	0	0	1.41811
5.32463	1.70495	0.757068	0.000391084	1.4174
5.3319	0.828976	1.46384	-0.00027225	1.4091
5.33356	1.36479	1.30596	0.000749474	1.4169
5.33872	0.500455	1.13333	-0.000270983	1.41968
5.34129	1.54143	1.06425	-0.000777867	1.40314
5.36559	0.171461	0.473566	0.0011736	1.40717
5.41295	0.674028	1.34734	0.000633069	1.38535
5.42676	0.95575	1.50235	9.63441e-05	1.38947
5.44592	1.1065	1.49082	-0.000186411	1.38229
5.45657	1.81449	0.506045	0.000157914	1.37799
5.46356	0.355623	0.883863	0.000431874	1.37239
5.46875	0	0	0	1.37241
5.46875	2	0	0	1.38607
5.46995	1.26722	1.4006	0.000554061	1.37062
5.48278	1.4436	1.21085	-3.99393e-05	1.36788
5.48662	1.63261	0.907591	0.000168171	1.37449
5.49122	0.527888	1.17044	5.52709e-05	1.36171
5.50448	0.82072	1.45828	0.000660152	1.36547
5.52002	0.176809	0.485958	0.000197848	1.35859
5.57973	0.671135	1.34573	-0.000270519	1.34475
5.58204	0.987294	1.50716	0.000322222	1.33085
5.61266	1.15114	1.47365	-0.000105666	1.32993
5.61803	1.82534	0.482666	0.00157273	1.3115
5.625	0	0	0	1.31496
5.625	2	0	0	1.31626
5.62749	1.32264	1.35041	0.000238946	1.32558
5.6332	1.49014	1.14513	-0.000125483	1.31957
5.63408	1.64904	0.869987	0.00132455	1.32618
5.63561	0.313868	0.798245	0.000859934	1.31867
5.64149	0.492041	1.12159	-0.000278167	1.32333
5.66289	0.843241	1.47223	0.000507278	1.31532
5.66955	0.141775	0.393196	9.83866e-05	1.32251
5.72676	0.679958	1.35408	0.00062351	1.28813
5.74865	1.02114	1.50976	0.000292845	1.29305
5.75578	1.72092	0.719907	0.000497636	1.29123
5.76962	1.20787	1.44356	0.000288817	1.27846
5.78125	0	0	0	1.28322
5.78125	2	0	0	1.2795
5.78585	1.55476	1.04224	-2.29924e-05	1.27304
5.78745	1.38797	1.27993	0.000492871	1.27925
5.79146	0.225418	0.60551	-0.000340917	1.26879
5.79437	0.541397	1.1885	0.000118348	1.27579
5.7966	0.388171	0.942977	-0.000456724	1.27365
5.80833	1.85837	0.396089	-0.000214294	1.27883
5.81356	0.830987	1.4644	-0.000327311	1.26506
5.89237	0.672847	1.34565	-0.000229937	1.24928
5.89655	0.961945	1.50364	-9.28058e-06	1.24378
5.90277	1.67668	0.818184	-0.00115777	1.2392
5.91004	0.143617	0.398047	-0.00095889	1.22482
5.91832	1.11923	1.48601	0.000281996	1.2361
5.92505	1.28807	1.38353	-0.000195626	1.23606
5.9375	0	0	0	1.22931
5.9375	2	0	0	1.23609
5.94671	1.49031	1.14698	0.000771631	1.22994
5.94895	0.498769	1.12916	0.00025852	1.22155
5.95699	0.315407	0.803124	-0.00152511	1.23457
5.97972	0.821246	1.46015	0.000683374	1.22151
5.98371	1.83509	0.456823	-0.00143236	1.21778
6.04793	0.997371	1.50873	6.16841e-05	1.19607
6.05093	0.659946	1.33474	-0.00063372	1.19876
6.05733	1.35345	1.3185	-0.000278619	1.19379
6.05733	1.66567	0.839835	3.70265e-05	1.19389
6.07438	0.155879	0.433675	-0.000526331	1.19201
6.09375	0	0	0	1.18932
6.09375	2	0	0	1.18293
6.09511	1.17624	1.46296	0.000390246	1.1857
6.11488	0.494167	1.1252	0.000538216	1.177
6.11864	0.321433	0.812741	-0.000425469	1.17586
6.12629	1.50563	1.12272	-0.000414219	1.17896
6.13077	0.841032	1.47076	0.000395027	1.16992
6.1489	1.83123	0.465924	-0.000101697	1.16836
6.20518	1.01044	1.50899	-0.00078796	1.15127
6.20675	0.688945	1.36171	0.000270532	1.14882
6.20754	1.33285	1.34156	3.81248e-05	1.14536
6.22241	1.66517	0.841722	9.7451e-05	1.14626
6.2427	0.20304	0.550745	-0.000355489	1.13876
6.25	0	0	0	1.13842
6.25	2	0	0	1.13513
6.26592	0.390252	0.94642	0.000220676	1.1325
6.2737	0.548842	1.19745	0.000299316	1.13007
6.27801	1.16823	1.46602	-7.91567e-05	1.1317
6.28967	0.845471	1.47176	0.000579006	1.12487
6.29109	1.49669	1.13664	-0.000202543	1.12431
6.31176	1.83035	0.468428	-0.000164683	1.11945
6.36977	1.32731	1.34708	9.33916e-05	1.10191
6.37265	1.0047	1.50792	0.000219318	1.09511
6.38021	0.678257	1.35192	-0.000615836	1.09991
6.38841	0.132496	0.371737	-0.000145091	1.09144
6.38903	1.66056	0.84994	-5.36935e-05	1.09116
6.39544	0.30181	0.773115	0.000134981	1.09685
6.40625	0	0	0	1.09042
6.40625	2	0	0	1.08984
6.42817	0.490596	1.11862	0.000498208	1.08394
6.44352	0.839334	1.47173	0.000130399	1.08713
6.44933	1.15897	1.4712	-0.000349957	1.0785
6.4505	1.49275	1.14314	0.0001883	1.08062
6.47135	1.82523	0.481911	-0.000247391	1.07326
6.53203	1.32115	1.35245	-9.93392e-05	1.04847
6.53805	0.190833	0.520175	0.00127893	1.05397
6.54492	0.350785	0.868961	0.000200814	1.04012
6.54612	0.991395	1.50966	0.000226752	1.04718
6.54854	0.641731	1.31524	-1.01756e-05	1.03791
6.5625	0	0	0	1.04745
6.5625	2	0	0	1.04002
6.56511	1.65164	0.869408	-6.86183e-05	1.04143
6.57611	0.805789	1.44943	-0.000479197	1.03748
6.59644	1.47572	1.16539	-0.00012477	1.03065
6.60021	0.485553	1.10602	0.000430351	1.03872
6.61104	1.16778	1.4664	0.000852001	1.02741
6.62303	1.83333	0.460338	0.000345395	1.02409
6.67797	0.159167	0.441179	0.000729545	1.00631
6.69595	0.884135	1.4847	-0.000826298	1.00022
6.70611	1.3487	1.3259	0.000178923	1.00147
6.71222	0.719626	1.3884	0.000173244	1.00229
6.71484	1.02651	1.50829	-0.000620445	1.00503
6.71835	0.343076	0.861042	-0.000346955	0.995913
6.71875	0	0	0	0.996978
6.71875	2	0	0	0.990738
6.73106	1.53658	1.07363	0.000222061	0.991697
6.73549	0.550398	1.20392	7.09831e-05	0.990603
6.73583	1.70269	0.761817	-0.000865678	0.988303
6.76575	1.18377	1.45744	0.000825375	0.981137
6.77423	1.86272	0.382258	0.00048129	0.987901
6.83164	0.164936	0.455377	0.00032471	0.955768
6.85187	0.860199	1.47947	0.000219124	0.947917
6.86015	0.683167	1.35817	0.000315278	0.956768
6.86546	1.31419	1.35613	0.000335175	0.949565
6.87035	1.04319	1.50412	-0.000529723	0.94594
6.875	0	0	0	0.954885
6.875	2	0	0	0.94325
6.87575	1.44949	1.20259	-0.000143955	0.947645
6.88591	1.61761	0.932266	0.000322025	0.945558
6.88678	0.321223	0.811318	-0.000714126	0.948864
6.8922	0.494519	1.12387	0.000107375	0.940343
6.89974	1.78998	0.567701	-0.000171095	0.938936
6.92682	1.19122	1.44986	0.000586925	0.933033
6.98916	0.957929	1.50239	-0.000614852	0.917178
6.99098	0.650591	1.32179	-0.000152839	0.910981
7.00919	0.186164	0.511682	-0.00145927	0.905598
7.02872	1.51164	1.11367	-4.7263e-06	0.902974
7.03125	0	0	0	0.890823
7.03125	2	0	0	0.899223
7.0331	0.807524	1.45213	0.000217384	0.903012
7.03903	0.373273	0.914873	-0.000724403	0.898116
7.04205	1.68969	0.790434	0.000284637	0.896653
7.04287	1.11773	1.48778	0.0003893	0.90275
7.04474	1.3141	1.36247	0.000294643	0.895198
7.04779	1.86314	0.382097	-0.000328761	0.897806
7.05868	0.522937	1.16146	-8.01403e-05	0.896772
7.14077	0.968735	1.50679	0.000683587	0.864295
7.14663	0.665753	1.33999	-0.000287606	0.866244
7.16911	1.43662	1.21847	0.00111249	0.860295
7.17344	0.29058	0.747517	2.11753e-05	0.859616
7.17605	0.13214	0.369286	-0.000372806	0.857177
7.1875	0	0	0	0.858026
7.1875	2	0	0	0.861278
7.18822	1.59946	0.966401	0.000176751	0.855027
7.19304	1.1336	1.48109	-0.00105075	0.846583
7.19558	1.7803	0.59183	5.79587e-05	0.850584
7.20826	0.487573	1.11299	0.000200483	0.847626
7.21347	0.822336	1.46073	0.00029419	0.849424
7.22548	1.29094	1.38151	0.000262388	0.852087
7.29823	0.66012	1.33429	0.000358217	0.817449
7.30895	0.983853	1.50647	0.000410401	0.818271
7.31268	0.355228	0.878757	0.000972597	0.81693
7.33412	1.47529	1.16902	0.000349128	0.803691
7.34173	0.183817	0.506376	0.00161035	0.817195
7.34344	1.65801	0.855348	0.0010828	0.809356
7.34375	0	0	0	0.818319
7.34375	2	0	0	0.79808
7.35002	1.83397	0.459226	0.00126017	0.796063
7.35385	1.14334	1.47736	-0.000431111	0.808339
7.37374	1.31114	1.35971	0.00144088	0.78978
7.37641	0.827279	1.46427	0.000120906	0.797571
7.38118	0.506785	1.14059	0.000211598	0.802239
7.45779	0.66093	1.33447	0.000635558	0.771735
7.46678	0.344902	0.860407	0.00150165	0.762155
7.49548	1.55123	1.0493	0.000251365	0.763644
7.4962	0.99694	1.50931	0.000137057	0.758098
7.5	0	0	0	0.750696
7.5	2	0	0	0.759754
7.50041	0.18725	0.510555	0.000466353	0.765077
7.50068	1.20375	1.44623	0.000268032	0.763099
7.50445	1.72206	0.719915	0.00113301	0.7604
7.50722	1.38565	1.28279	0.000563216	0.762618
7.51522	1.87324	0.355064	-0.000200911	0.758128
7.5249	0.819336	1.46019	0.000199109	0.755463
7.54754	0.49567	1.12508	-0.000179413	0.746004
7.61486	0.658679	1.3329	0.000276113	0.727711
7.62433	1.12148	1.48269	0.0008272	0.72066
7.6306	0.146415	0.40624	0.000119893	0.715613
7.6403	0.323655	0.819468	0.000202702	0.719943
7.65071	1.63304	0.903452	-0.000433305	0.714451
7.65513	1.29125	1.37917	0.000311067	0.709618
7.65625	0	0	0	0.720456
7.65625	2	0	0	0.725367
7.66234	1.45963	1.18876	-0.000109981	0.707148
7.66984	0.826589	1.46061	8.93634e-06	0.703413
7.6775	1.82103	0.493595	-0.00102229	0.708099
7.68894	0.985005	1.51022	0.000582151	0.707654
7.70783	0.497692	1.12853	-0.000187683	0.694447
7.76961	0.675684	1.35043	0.000305078	0.681402
7.77844	0.173877	0.477942	0.000979428	0.670517
7.77977	1.17786	1.45927	0.00034297	0.675336
7.79677	1.69973	0.767963	-0.00107559	0.671772
7.81187	1.5403	1.06834	0.000533166	0.670363
7.8125	0	0	0	0.673715
7.8125	2	0	0	0.658529
7.81889	0.344641	0.860844	-0.000919535	0.664796
7.82503	1.35667	1.31885	-0.000452444	0.666045
7.83117	0.852559	1.47741	-0.000215288	0.662993
7.83815	1.02652	1.50541	0.000775457	0.654741
7.85863	1.84468	0.430747	8.43527e-05	0.659414
7.86367	0.517976	1.15818	0.000251046	0.652239
7.92496	0.683656	1.35522	-0.000226304	0.623584
7.94773	1.15534	1.47356	-0.000314514	0.62523
7.94904	0.200281	0.546051	-0.00156866	0.619792
7.96335	1.68487	0.802587	-0.00127615	0.611333
7.96852	1.49958	1.13364	0.00066555	0.620487
7.96875	0	0	0	0.59932
7.96875	2	0	0	0.613733
7.97788	0.972742	1.50621	0.000506314	0.6145
7.98782	0.386922	0.940578	-0.000901315	0.610343
7.98862	0.812699	1.45225	-0.000205264	0.614337
7.99391	1.32342	1.34998	-0.000117078	0.610922
8.01465	1.85528	0.402555	-0.000362604	0.613049
8.01839	0.553609	1.20445	-0.00032881	0.603977
8.09983	1.1727	1.45972	-0.000399677	0.576848
8.11062	0.137209	0.383054	-0.000891428	0.583266
8.11304	0.691684	1.36586	-3.23025e-05	0.5825
8.11948	1.60815	0.950075	-0.000173832	0.576244
8.12407	0.873811	1.48353	0.000613393	0.569995
8.125	0	0	0	0.580336
8.125	2	0	0	0.566564
8.1259	1.44383	1.21024	0.000438329	0.566031
8.12673	1.03906	1.50424	0.000426271	0.572887
8.12786	0.303334	0.774978	0.000182645	0.575574
8.13331	1.77781	0.597497	-7.99393e-05	0.569087
8.15658	1.28747	1.38013	-0.000153947	0.566757
8.15685	0.490438	1.11808	-0.000338964	0.561491
8.26268	0.8058	1.44775	0.00045478	0.525709
8.26997	0.964302	1.50539	-3.67136e-06	0.529259
8.27475	0.192514	0.525088	-0.000107044	0.525472
8.27637	1.86369	0.380653	0.000203773	0.522248
8.27781	1.35946	1.31454	2.57924e-05	0.528026
8.27818	0.663747	1.33666	0.000753288	0.522814
8.27874	1.52651	1.09043	0.000181103	0.524243
8.27894	1.69057	0.789758	0.000110552	0.525278
8.27955	1.15108	1.47586	0.000560126	0.521846
8.28125	0	0	0	0.525735
8.28125	2	0	0	0.524242
8.288	0.36775	0.903989	-0.00019781	0.523628
8.31598	0.525165	1.16457	0.000574676	0.518447
8.39595	1.27911	1.38703	0.000658814	0.481952
8.40226	1.0112	1.50728	-9.19683e-05	0.490163
8.42096	1.78239	0.586656	-4.9678e-05	0.484219
8.4289	0.129146	0.362428	5.83575e-05	0.480593
8.43107	1.44256	1.21204	-9.13667e-05	0.479417
8.43189	0.830898	1.46804	0.000606201	0.481627
8.43571	0.290338	0.746354	0.000497941	0.479248
8.43681	1.60829	0.950094	-3.65127e-05	0.473006
8.4375	0	0	0	0.478155
8.4375	2	0	0	0.482012
8.44574	0.642432	1.31435	0.000775455	0.475127
8.45198	0.459485	1.06625	0.000381559	0.47239
8.47168	1.15642	1.47026	0.000504362	0.474315
8.54127	1.85898	0.392506	-0.000287261	0.434984
8.55368	1.32162	1.35274	0.000757154	0.44293
8.55693	1.01088	1.50727	0.000291651	0.431355
8.58323	0.193891	0.527973	0.000693505	0.439197
8.58336	1.69071	0.78907	0.00137661	0.435046
8.59082	0.720566	1.38886	0.000546339	0.430891
8.59332	1.50728	1.12424	3.92279e-05	0.433985
8.59375	0	0	0	0.433594
8.59375	2	0	0	0.433549
8.59397	0.37121	0.910831	0.00113982	0.431516
8.598	0.547734	1.19767	0.000723428	0.430233
8.60257	0.873798	1.48049	0.00136864	0.431083
8.64004	1.16015	1.4703	0.000683583	0.416726
8.69037	1.83241	0.463347	-0.000217379	0.400781
8.71143	1.32442	1.34941	-4.64805e-05	0.386371
8.72586	0.127353	0.355382	0.00149153	0.386844
8.73296	0.996623	1.50983	0.00094877	0.392636
8.74001	0.29026	0.746457	0.000556387	0.38406
8.74592	0.637417	1.30877	0.000995802	0.386106