TITLE = "SOLUTION_FIELD"
VARIABLES = "x" "y" "u" "v" "p"
ZONE N=11920, E=23134, F=FEPOINT, ET=TRIANGLE
0	0.5	0	0	0.171605
0	0.515625	0.121094	0	0.1723
0	0.53125	0.234375	0	0.172585
0	0.546875	0.339844	0	0.17254
0	0.5625	0.4375	0	0.172619
0	0.578125	0.527344	0	0.172313
0	0.59375	0.609375	0	0.172785
0	0.609375	0.683594	0	0.172652
0	0.625	0.75	0	0.172392
0	0.640625	0.808594	0	0.172413
0	0.65625	0.859375	0	0.172193
0	0.671875	0.902344	0	0.17243
0	0.6875	0.9375	0	0.172323
0	0.703125	0.964844	0	0.172571
0	0.71875	0.984375	0	0.17278
0	0.734375	0.996094	0	0.172458
0	0.75	1	0	0.172856
0	0.765625	0.996094	0	0.172538
0	0.78125	0.984375	0	0.172588
0	0.796875	0.964844	0	0.173225
0	0.8125	0.9375	0	0.173271
0	0.828125	0.902344	0	0.173437
0	0.84375	0.859375	0	0.172974
0	0.859375	0.808594	0	0.173128
0	0.875	0.75	0	0.173703
0	0.890625	0.683594	0	0.173316
0	0.90625	0.609375	0	0.173853
0	0.921875	0.527344	0	0.173836
0	0.9375	0.4375	0	0.173791
0	0.953125	0.339844	0	0.17378
0	0.96875	0.234375	0	0.173218
0	0.984375	0.121094	0	0.174521
0	1	0	0	0.173316
0.015625	0.5	0	0	0.170909
0.0169193	0.869183	0.771855	-4.20341e-05	0.172201
0.0174299	0.812232	0.937181	-5.64544e-05	0.1717
0.0180148	0.71428	0.978598	-5.67596e-05	0.171356
0.0181041	0.655565	0.856791	-5.27913e-05	0.170933
0.0181321	0.971106	0.217752	-4.23603e-05	0.171714
0.0183688	0.793122	0.969699	-0.000121813	0.171532
0.0185514	0.518115	0.138903	1.03718e-05	0.170349
0.0185593	0.732536	0.994649	-8.35022e-05	0.17111
0.0186345	0.575528	0.51237	-5.85929e-05	0.170332
0.0186646	0.69647	0.953566	-0.000141455	0.171142
0.0189241	0.83108	0.894191	-2.86527e-05	0.171474
0.0190135	0.888867	0.690837	1.40272e-05	0.171309
0.0193875	0.554377	0.38692	-7.2506e-05	0.170227
0.0195312	1	0	0	0.171434
0.019594	0.752317	0.999258	-4.88869e-05	0.171061
0.0196899	0.63473	0.786696	-0.000103348	0.170477
0.0198149	0.615033	0.707778	-9.82351e-05	0.170379
0.0200916	0.908739	0.596043	-3.18809e-05	0.171137
0.0205078	0.595202	0.615826	-7.63811e-05	0.169958
0.020545	0.536089	0.267034	-6.90213e-05	0.169874
0.0206603	0.949359	0.363334	-3.52678e-05	0.171086
0.0206717	0.929271	0.484969	-3.70806e-05	0.17118
0.0212821	0.676668	0.913296	-0.000107035	0.170329
0.0218264	0.851046	0.836118	-9.34297e-05	0.171038
0.0220994	0.772594	0.991263	-0.000116643	0.170764
0.03125	0.5	0	0	0.167395
0.0338225	0.872363	0.760367	-2.93889e-07	0.167577
0.0340508	0.982173	0.136782	4.77567e-05	0.167422
0.0352562	0.562915	0.439475	-0.00010399	0.166412
0.0353162	0.7911	0.972525	-3.53866e-05	0.167189
0.0357274	0.693638	0.948581	-8.88074e-06	0.166425
0.036545	0.713698	0.978888	-0.00015951	0.166005
0.0369886	0.833841	0.887028	-0.000281834	0.167006
0.0375904	0.520752	0.15897	-2.56474e-05	0.165741
0.0376278	0.644765	0.822353	-0.00011857	0.165884
0.0377616	0.662308	0.876251	-0.000291317	0.165853
0.0379178	0.812363	0.938151	-0.000159527	0.166409
0.038387	0.734807	0.995994	-0.000288861	0.166142
0.0384327	0.917112	0.552957	-4.86314e-05	0.166906
0.0386158	0.961816	0.28189	0.000106728	0.166999
0.0387782	0.624179	0.746252	-0.000145287	0.16557
0.0388826	0.604665	0.661667	-0.000106461	0.16559
0.0390625	1	0	0	0.166703
0.0390641	0.75513	0.999221	-0.000293108	0.166134
0.0400466	0.582186	0.549284	-0.00014154	0.165433
0.0402386	0.894721	0.664933	-6.85733e-05	0.166606
0.0405473	0.542207	0.309213	-0.000141575	0.165279
0.0411028	0.939096	0.427582	-1.75508e-05	0.166371
0.0432725	0.852791	0.830661	-0.000161847	0.165834
0.044139	0.67831	0.917646	-0.000240156	0.164983
0.0445639	0.774283	0.989996	-0.000180218	0.165145
0.046875	0.5	0	0	0.164034
0.0520078	0.873494	0.755711	-0.000151025	0.16423
0.0534604	0.560961	0.427893	-0.000189014	0.162408
0.0540939	0.793367	0.969314	-0.000222763	0.163177
0.0544274	0.699573	0.959186	-0.000146276	0.162956
0.0546109	0.636431	0.793117	-0.000167635	0.162642
0.0550067	0.595914	0.61953	-0.000129126	0.162347
0.0553981	0.979498	0.15714	8.08623e-06	0.163391
0.0562866	0.720996	0.986112	-0.000274773	0.162706
0.0566863	0.832326	0.891355	-0.000244332	0.162866
0.0573569	0.521909	0.16759	-0.000134264	0.161511
0.058244	0.741559	0.998324	-0.000289099	0.162121
0.0584288	0.9146	0.566066	-3.09743e-05	0.162736
0.0585938	1	0	0	0.16274
0.0586454	0.957037	0.313778	-1.81913e-05	0.162579
0.0586797	0.811476	0.938797	-0.000244662	0.162777
0.0587226	0.759805	0.997644	-0.000349492	0.162147
0.0598382	0.616196	0.713392	-0.000181046	0.161407
0.059858	0.657047	0.861774	-0.000322252	0.161355
0.0608513	0.677708	0.915718	-0.000342471	0.161302
0.0611409	0.542262	0.308899	-0.000120824	0.160973
0.0612664	0.935773	0.44736	-1.95415e-05	0.162134
0.0616109	0.892667	0.673889	-3.02494e-05	0.162153
0.0624826	0.85336	0.828562	-0.000316172	0.161679
0.0625	0.5	0	0	0.160317
0.0628438	0.577936	0.525888	-0.000216545	0.160787
0.0664895	0.776614	0.988393	-0.000340518	0.160637
0.0710277	0.872738	0.758104	-0.000230342	0.160122
0.0721181	0.692338	0.946092	-0.000322133	0.158954
0.0727899	0.636566	0.793911	-0.000269881	0.158373
0.0736083	0.597711	0.628697	-0.000181294	0.158213
0.0752049	0.558644	0.413696	-0.000152151	0.157918
0.07521	0.710774	0.974971	-0.000373214	0.158317
0.0754865	0.796363	0.965573	-0.000382713	0.158855
0.0756236	0.819908	0.921402	-0.000266683	0.158824
0.0760581	0.730653	0.993738	-0.000341377	0.15835
0.0763512	0.971614	0.214066	-6.01239e-05	0.159096
0.0769397	0.517256	0.132977	-6.0303e-05	0.157778
0.0777394	0.838871	0.873011	-0.000340215	0.158416
0.078125	0.5	0	0	0.157495
0.078125	1	0	0	0.158745
0.0782721	0.948578	0.368657	-7.37459e-05	0.158597
0.0783221	0.75365	0.999556	-0.000388724	0.157822
0.07861	0.905965	0.610248	-0.000108405	0.158284
0.0791067	0.673877	0.906943	-0.000322133	0.157343
0.0791541	0.925832	0.504835	-0.000150931	0.158365
0.0802691	0.537252	0.275944	-3.66086e-05	0.157149
0.0817227	0.859143	0.809104	-0.000264681	0.157672
0.0817305	0.885835	0.704554	-0.00017924	0.157641
0.081788	0.617402	0.718333	-0.000248795	0.156754
0.0829355	0.57796	0.526262	-0.000180478	0.156466
0.0830772	0.655029	0.855436	-0.000397496	0.156737
0.0855984	0.774553	0.989983	-0.00047838	0.156405
0.090239	0.694697	0.950815	-0.000427968	0.154991
0.0909077	0.81118	0.939415	-0.000361179	0.15541
0.0933521	0.738006	0.997204	-0.000458081	0.15475
0.0935468	0.598767	0.633627	-0.0002673	0.153965
0.09375	0.5	0	0	0.154319
0.0939529	0.636023	0.791864	-0.000369162	0.154063
0.0954351	0.849673	0.840581	-0.000282385	0.155006
0.0957153	0.981765	0.140053	-3.33326e-05	0.154737
0.0960368	0.960056	0.29364	-6.12929e-05	0.1548
0.0964149	0.519009	0.146112	1.64174e-05	0.153468
0.096589	0.937274	0.438449	-0.000145089	0.15475
0.0966954	0.894793	0.664157	-0.000290245	0.154636
0.0968657	0.793849	0.968665	-0.000431027	0.154323
0.0970262	0.716078	0.981526	-0.000492347	0.153805
0.0976562	1	0	0	0.154418
0.0979224	0.559344	0.418474	-6.66181e-05	0.153009
0.0981742	0.830363	0.896528	-0.000456398	0.154143
0.098356	0.675076	0.909942	-0.000345954	0.153242
0.0985613	0.872015	0.761266	-0.00025159	0.153824
0.0988351	0.537384	0.276307	-8.39788e-06	0.153127
0.0994389	0.914642	0.565721	-0.000166445	0.153997
0.10021	0.580978	0.542404	-0.000193981	0.152704
0.101415	0.756921	0.9991	-0.000524484	0.153207
0.102878	0.616742	0.715794	-0.00038051	0.152288
0.104174	0.655033	0.855602	-0.000429962	0.152042
0.104239	0.776891	0.987732	-0.000524229	0.152588
0.109368	0.695542	0.952281	-0.000563721	0.151031
0.109375	0.5	0	0	0.15091
0.110207	0.81234	0.937403	-0.000499727	0.151322
0.11209	0.733562	0.995372	-0.000576983	0.150449
0.112129	0.851342	0.83534	-0.000343894	0.150952
0.113739	0.54367	0.318528	-0.000119242	0.149636
0.113816	0.889963	0.685717	-0.00034787	0.150858
0.114283	0.948701	0.36772	-0.000160768	0.150777
0.114936	0.971977	0.211452	-1.83403e-05	0.150845
0.115392	0.574705	0.507822	-0.000109348	0.149261
0.115775	0.92833	0.490229	-0.000106518	0.150413
0.115853	0.595576	0.618352	-0.000365236	0.149262
0.115909	0.635296	0.789517	-0.000485168	0.149439
0.116611	0.521815	0.167133	8.14133e-06	0.149094
0.117188	1	0	0	0.150461
0.118241	0.675941	0.911911	-0.000425845	0.149081
0.118298	0.793424	0.969298	-0.000532302	0.149607
0.119343	0.713772	0.978781	-0.000587096	0.149226
0.120196	0.831434	0.893399	-0.000457789	0.149526
0.120403	0.870673	0.766335	-0.000384581	0.149774
0.121149	0.772458	0.991683	-0.000543888	0.14887
0.121177	0.614598	0.70623	-0.000449425	0.148237
0.1214	0.909139	0.594759	-0.000233003	0.149557
0.122274	0.75136	0.999671	-0.00066526	0.148765
0.123021	0.559408	0.418611	-0.000137478	0.148146
0.123191	0.656734	0.860752	-0.000446343	0.148061
0.125	0.5	0	0	0.147182
0.130486	0.694384	0.949949	-0.000637973	0.146405
0.130658	0.812108	0.937902	-0.000604312	0.1471
0.130921	0.956827	0.314906	1.10547e-05	0.147546
0.131728	0.538969	0.287411	-0.000159222	0.145753
0.131784	0.850386	0.83807	-0.000461711	0.146943
0.133834	0.730489	0.993572	-0.000706055	0.145976
0.134892	0.579425	0.53462	-0.000215865	0.145166
0.135277	0.890244	0.684875	-0.000351786	0.146277
0.135496	0.978578	0.1636	8.01703e-05	0.145942
0.136171	0.641334	0.81074	-0.00052412	0.145257
0.136279	0.934502	0.455496	-9.98695e-05	0.146201
0.136719	1	0	0	0.145763
0.137433	0.519678	0.151125	-6.00027e-05	0.144674
0.137488	0.621466	0.735342	-0.000564285	0.144661
0.137505	0.600871	0.64397	-0.000424744	0.144713
0.138683	0.768048	0.994299	-0.00066758	0.145178
0.139026	0.791455	0.972261	-0.000656521	0.145262
0.139329	0.868783	0.77317	-0.000448518	0.14543
0.139398	0.677922	0.916575	-0.000579677	0.144452
0.139905	0.710536	0.974519	-0.000715452	0.144465
0.140297	0.912213	0.578179	-0.000268508	0.145358
0.140625	0.5	0	0	0.143676
0.140889	0.749474	0.99913	-0.00073753	0.144517
0.141546	0.832193	0.891489	-0.000564094	0.144909
0.141603	0.660077	0.869948	-0.000525373	0.143906
0.142297	0.557246	0.405473	-0.000231277	0.143503
0.149137	0.960033	0.293675	3.93096e-05	0.143298
0.150873	0.812646	0.936738	-0.000641858	0.1428
0.152145	0.537555	0.277782	-9.66416e-05	0.141372
0.153064	0.63146	0.774799	-0.000550344	0.141612
0.153442	0.853208	0.829191	-0.00054804	0.142498
0.153949	0.777601	0.987081	-0.000779852	0.141905
0.154478	0.737352	0.996818	-0.000772635	0.141736
0.15448	0.572436	0.495114	-0.000271831	0.141047
0.154704	0.87887	0.733615	-0.00044783	0.142376
0.155298	0.590678	0.593847	-0.000454371	0.14095
0.155457	0.694961	0.951558	-0.000778132	0.141376
0.15625	0.5	0	0	0.140645
0.15625	1	0	0	0.141974
0.156401	0.718643	0.984541	-0.000777338	0.141223
0.156451	0.899601	0.641102	-0.000331385	0.141901
0.157075	0.941091	0.414475	-9.96285e-05	0.141819
0.157157	0.651046	0.842971	-0.00057866	0.140437
0.157851	0.612025	0.695732	-0.000502498	0.140453
0.158081	0.518598	0.143417	1.91139e-05	0.140395
0.158154	0.979901	0.154124	-2.29154e-05	0.141676
0.158267	0.921446	0.528858	-0.000249622	0.141557
0.159163	0.672139	0.902792	-0.000736391	0.140317
0.15955	0.757782	0.99887	-0.00078437	0.140686
0.161421	0.795324	0.96653	-0.000799076	0.140609
0.161777	0.832458	0.890579	-0.000723974	0.140526
0.163165	0.555074	0.392147	-0.000193736	0.139384
0.169903	0.958243	0.305564	-0.000129576	0.139303
0.170266	0.635966	0.792088	-0.000583609	0.13763
0.170414	0.868172	0.775214	-0.000489496	0.138719
0.171875	0.5	0	0	0.13753
0.172471	0.813447	0.934877	-0.000768613	0.138189
0.172909	0.776349	0.988215	-0.00090253	0.137749
0.174083	0.738352	0.997658	-0.000836164	0.137292
0.174371	0.596712	0.624227	-0.000530758	0.136944
0.174415	0.888683	0.691436	-0.000490646	0.138097
0.17456	0.850376	0.838297	-0.000562848	0.138197
0.174833	0.536442	0.270456	-1.20284e-05	0.136628
0.175004	0.575418	0.512616	-0.000375393	0.136423
0.175224	0.717094	0.982038	-0.000841293	0.137304
0.175781	1	0	0	0.13814
0.176329	0.910407	0.587557	-0.000368543	0.137692
0.176442	0.697541	0.955719	-0.000945267	0.136771
0.177033	0.517738	0.136525	8.83302e-05	0.136335
0.177086	0.657334	0.862769	-0.000747477	0.136472
0.177359	0.678762	0.918657	-0.000873892	0.136308
0.177593	0.933858	0.458852	-0.000288921	0.137585
0.178495	0.617677	0.719637	-0.00051805	0.135943
0.179141	0.757649	0.998275	-0.000912793	0.136557
0.180195	0.978535	0.163889	-9.99795e-05	0.137106
0.181595	0.556105	0.398383	-0.000174182	0.13513
0.182371	0.831989	0.891952	-0.000780076	0.136392
0.182494	0.794344	0.968137	-0.000949681	0.136097
0.1875	0.5	0	0	0.13419
0.188757	0.636236	0.79281	-0.000678239	0.133744
0.190307	0.874235	0.752387	-0.00055002	0.134538
0.190479	0.958241	0.305436	-0.000316768	0.134751
0.192694	0.60377	0.657664	-0.000546971	0.132763
0.193192	0.729873	0.993033	-0.000940523	0.13329
0.193609	0.708422	0.972026	-0.000999582	0.133055
0.193819	0.772075	0.991927	-0.00103401	0.133545
0.19404	0.89691	0.65376	-0.000482108	0.133976
0.194169	0.852171	0.83185	-0.000644046	0.133704
0.194329	0.585666	0.56807	-0.000417924	0.13255
0.194332	0.813766	0.934545	-0.000920736	0.133724
0.194352	0.522887	0.175245	1.19075e-05	0.132536
0.195312	1	0	0	0.133704
0.196106	0.651962	0.845764	-0.00080807	0.132311
0.196128	0.918646	0.543898	-0.000381732	0.133433
0.196447	0.749374	0.999601	-0.0010312	0.132776
0.196661	0.688607	0.939473	-0.00103205	0.132337
0.196856	0.669969	0.897244	-0.000885929	0.132119
0.197023	0.544318	0.323323	-9.26536e-05	0.131886
0.197674	0.93885	0.428059	-0.000286345	0.133145
0.198407	0.565746	0.456953	-0.000327925	0.131658
0.200559	0.620156	0.730303	-0.000696661	0.131302
0.200842	0.834314	0.885222	-0.000804684	0.132232
0.20122	0.978249	0.166116	-0.000125957	0.132902
0.201361	0.792726	0.969949	-0.00100641	0.131952
0.203125	0.5	0	0	0.130388
0.208042	0.865733	0.784362	-0.000662246	0.130984
0.208906	0.719563	0.984663	-0.00107189	0.129878
0.210904	0.638117	0.799607	-0.000826992	0.129033
0.211199	0.517354	0.133753	-8.58995e-05	0.128908
0.211251	0.885203	0.706389	-0.000620871	0.130389
0.212236	0.953576	0.336106	-0.000235486	0.129952
0.212686	0.776734	0.987662	-0.00118217	0.129542
0.212945	0.601326	0.646741	-0.000523982	0.128269
0.213249	0.699635	0.959294	-0.00107245	0.128891
0.213849	0.807739	0.945473	-0.00101886	0.129228
0.214338	0.535576	0.264628	-0.000132204	0.128272
0.214365	0.579133	0.533365	-0.000388945	0.128362
0.214486	0.657434	0.863077	-0.000952553	0.128436
0.21463	0.906307	0.608123	-0.000502741	0.129677
0.214844	1	0	0	0.129395
0.215136	0.75832	0.998283	-0.00115179	0.128689
0.215472	0.824821	0.909529	-0.000988477	0.129091
0.215711	0.737892	0.997516	-0.00112678	0.128609
0.21645	0.929497	0.484045	-0.000316273	0.129431
0.216815	0.848089	0.845243	-0.00080772	0.129081
0.21784	0.678919	0.919326	-0.00105075	0.127797
0.21875	0.5	0	0	0.127313
0.21886	0.556243	0.399937	-0.000259257	0.127149
0.22017	0.972965	0.203807	-7.58748e-05	0.128289
0.220198	0.621323	0.735076	-0.000752725	0.126949
0.223297	0.792465	0.970547	-0.00114841	0.127447
0.22625	0.716311	0.981599	-0.00122725	0.126024
0.226701	0.869703	0.769631	-0.000703998	0.126835
0.229279	0.519371	0.149173	-0.000130831	0.124756
0.230935	0.8334	0.887586	-0.00102564	0.125967
0.231102	0.660908	0.87299	-0.00110354	0.124818
0.231527	0.592905	0.605618	-0.000571436	0.124633
0.232492	0.771947	0.99152	-0.00128268	0.125075
0.23262	0.890589	0.682468	-0.000672698	0.12571
0.232928	0.696273	0.95376	-0.00111498	0.12455
0.233241	0.639275	0.804288	-0.000893005	0.124158
0.233341	0.573043	0.499155	-0.000381575	0.123938
0.234375	0.5	0	0	0.123714
0.234375	1	0	0	0.125354
0.234774	0.53822	0.282882	-0.000295692	0.12378
0.234893	0.954794	0.328619	-4.91556e-05	0.125439
0.235053	0.812121	0.93798	-0.0011155	0.125026
0.235195	0.911046	0.5838	-0.000584344	0.125258
0.235482	0.732831	0.99473	-0.00130938	0.124474
0.235534	0.931696	0.470323	-0.000334275	0.125406
0.236658	0.752152	0.999937	-0.00124887	0.124252
0.237062	0.615398	0.710844	-0.000682185	0.123516
0.23715	0.98142	0.142531	-8.55003e-06	0.124745
0.237844	0.853278	0.828198	-0.000906916	0.124649
0.240494	0.677758	0.916679	-0.00118706	0.123037
0.2409	0.789811	0.973655	-0.00132178	0.123422
0.241909	0.556455	0.4013	-0.000289792	0.12254
0.245712	0.714262	0.979345	-0.00131319	0.121966
0.247183	0.873803	0.753579	-0.00079089	0.122765
0.248306	0.834893	0.883603	-0.00109862	0.122052
0.248735	0.518676	0.144284	-3.22409e-05	0.120718
0.248926	0.656457	0.860398	-0.00116678	0.120839
0.249231	0.597358	0.627597	-0.000677352	0.120883
0.25	0.5	0	0	0.120603
0.251845	0.93792	0.433269	-0.000336455	0.121655
0.253798	0.695809	0.95314	-0.00125781	0.120186
0.253906	1	0	0	0.121448
0.254431	0.800266	0.958887	-0.00135266	0.120878
0.254652	0.733612	0.995335	-0.00147154	0.12004
0.254698	0.577116	0.522979	-0.000455663	0.119448
0.254801	0.918304	0.54544	-0.000438417	0.121188
0.254894	0.773691	0.990952	-0.00136343	0.120595
0.255417	0.973949	0.196677	1.59474e-05	0.120943
0.255447	0.895446	0.660495	-0.000669994	0.121075
0.255485	0.817879	0.924881	-0.00116752	0.120655
0.255757	0.53778	0.279887	-0.00018375	0.11916
0.255991	0.635926	0.792467	-0.000938476	0.119396
0.256311	0.616247	0.714022	-0.000814128	0.119349
0.256734	0.954219	0.331195	-0.000169639	0.121069
0.257291	0.752408	0.999241	-0.00148969	0.119983
0.257914	0.853878	0.826103	-0.00106533	0.120359
0.260325	0.676105	0.912978	-0.00128466	0.118637
0.260771	0.556268	0.399974	-0.000315713	0.118092
0.265625	0.5	0	0	0.117558
0.265735	0.715589	0.981051	-0.0014305	0.117731
0.267589	0.873104	0.756193	-0.000978856	0.118423
0.268074	0.83374	0.886644	-0.0012186	0.118188
0.268085	0.656001	0.859156	-0.00117834	0.116948
0.268303	0.599392	0.637733	-0.000688268	0.116296
0.268743	0.791662	0.970942	-0.001408	0.117422
0.269438	0.520671	0.159091	1.51707e-05	0.116604
0.272723	0.937086	0.438795	-0.000323595	0.117265
0.273438	1	0	0	0.11723
0.273951	0.695816	0.953153	-0.0014031	0.115724
0.27431	0.982369	0.135183	-5.87098e-05	0.117077
0.274711	0.913395	0.571369	-0.000446098	0.117043
0.274717	0.758664	0.998276	-0.00163235	0.11604
0.274801	0.960652	0.288815	-0.00012512	0.116897
0.275125	0.812064	0.937591	-0.00147011	0.116492
0.27544	0.584205	0.560709	-0.000479759	0.115094
0.275543	0.617911	0.721617	-0.0010255	0.114887
0.275548	0.565528	0.45645	-0.000365969	0.115049
0.275686	0.736341	0.99696	-0.00161799	0.115746
0.276543	0.77614	0.988032	-0.00147856	0.116124
0.277396	0.541801	0.307585	-0.000190218	0.114641
0.277694	0.852454	0.830667	-0.0011502	0.116212
0.277746	0.637259	0.797235	-0.0011849	0.114882
0.277814	0.891377	0.678687	-0.000804988	0.116559
0.279211	0.676127	0.913077	-0.00134071	0.114593
0.28125	0.5	0	0	0.113751
0.285642	0.714961	0.980415	-0.0016476	0.113438
0.287146	0.832068	0.891028	-0.00136214	0.114041
0.287284	0.656263	0.859806	-0.00131337	0.112656
0.288556	0.870427	0.766174	-0.0010665	0.113894
0.288628	0.793425	0.968773	-0.00158517	0.113324
0.288739	0.520101	0.154952	-0.000129772	0.111925
0.291049	0.601	0.645868	-0.000757629	0.111661
0.29228	0.751761	0.999258	-0.00170653	0.112326
0.292541	0.927831	0.492241	-0.000418008	0.113391
0.292728	0.972796	0.204937	-5.34598e-05	0.11331
0.29273	0.557945	0.410912	-0.000279367	0.11132
0.292763	0.949642	0.36071	-0.000240469	0.11333
0.292969	1	0	0	0.113246
0.29371	0.579225	0.534474	-0.00050536	0.110954
0.294951	0.905844	0.609498	-0.000696085	0.112683
0.295102	0.693806	0.94996	-0.00158168	0.111255
0.295169	0.622071	0.738931	-0.00111192	0.11071
0.29608	0.77229	0.991848	-0.00173666	0.111774
0.296091	0.812908	0.93554	-0.00158918	0.112297
0.296875	0.5	0	0	0.11012
0.296959	0.673352	0.9062	-0.00144905	0.110777
0.297411	0.733379	0.995507	-0.00171803	0.111287
0.297634	0.639999	0.806768	-0.00130317	0.110252
0.297642	0.851827	0.832653	-0.00129987	0.112141
0.2981	0.536802	0.273544	-0.000224666	0.110131
0.298139	0.886146	0.701299	-0.000957401	0.111939
0.305876	0.713813	0.979183	-0.00179432	0.109182
0.307224	0.831816	0.891135	-0.00152128	0.109718
0.30809	0.656006	0.859363	-0.00144167	0.108265
0.309033	0.795102	0.966526	-0.00173857	0.10915
0.309724	0.552092	0.374125	-0.000234501	0.107519
0.310054	0.518146	0.140568	-7.45447e-05	0.107499
0.310794	0.983015	0.130215	-3.2175e-05	0.109249
0.311478	0.91872	0.542657	-0.000602895	0.109468
0.311573	0.962168	0.278185	-0.000145133	0.109416
0.311648	0.591345	0.598442	-0.000792924	0.107172
0.311754	0.571083	0.488944	-0.000487838	0.107023
0.312259	0.870304	0.766716	-0.00115987	0.109055
0.312302	0.612622	0.699248	-0.00101236	0.107174
0.3125	0.5	0	0	0.10708
0.3125	1	0	0	0.109063
0.312792	0.940203	0.419282	-0.000358858	0.109061
0.31281	0.754313	0.999413	-0.00188489	0.107781
0.314913	0.676075	0.913051	-0.00169293	0.106663
0.315275	0.774457	0.989231	-0.00195996	0.10784
0.315463	0.89443	0.664566	-0.000949795	0.108501
0.315556	0.848311	0.84338	-0.0014689	0.108234
0.315986	0.815201	0.930402	-0.00170444	0.107844
0.316053	0.634946	0.789597	-0.00130855	0.106391
0.316066	0.695166	0.952318	-0.00184824	0.10695
0.31731	0.733075	0.995205	-0.00187916	0.106906
0.319387	0.536068	0.268733	-7.4903e-05	0.105529
0.326389	0.713233	0.978284	-0.00196205	0.104666
0.326511	0.657023	0.862508	-0.00155222	0.104038
0.327421	0.557037	0.405728	-0.000325884	0.10359
0.327648	0.788922	0.97451	-0.00193737	0.105362
0.328024	0.912137	0.576887	-0.000736582	0.105894
0.328125	0.5	0	0	0.103852
0.329483	0.85629	0.817244	-0.00146236	0.105402
0.329872	0.601115	0.646809	-0.000955531	0.10327
0.330325	0.832359	0.89044	-0.00168638	0.105125
0.330757	0.955113	0.325159	-0.000334334	0.10543
0.331055	0.977922	0.167719	-0.000148861	0.105556
0.331375	0.519087	0.147543	4.65036e-05	0.103037
0.331757	0.578447	0.530882	-0.000710653	0.102791
0.332031	1	0	0	0.105464
0.332752	0.80899	0.942967	-0.00188124	0.104327
0.332805	0.6213	0.736178	-0.00118205	0.102518
0.333635	0.747529	0.999492	-0.00206044	0.103634
0.333937	0.932013	0.467925	-0.000591256	0.104716
0.335302	0.768645	0.994008	-0.00214557	0.103393
0.335302	0.894685	0.662527	-0.00098374	0.104534
0.335531	0.695876	0.953296	-0.00200015	0.102536
0.335533	0.875294	0.746894	-0.00133254	0.104228
0.335576	0.675966	0.913292	-0.00188091	0.102362
0.335744	0.639729	0.806173	-0.00145471	0.102058
0.336785	0.728121	0.992018	-0.00211758	0.102653
0.338574	0.538784	0.287572	-9.73424e-05	0.101227
0.34375	0.5	0	0	0.100252
0.345585	0.791738	0.971065	-0.00207267	0.101328
0.345828	0.559064	0.41846	-0.000466838	0.0995562
0.346606	0.592975	0.606879	-0.000949168	0.0994594
0.346725	0.853159	0.827601	-0.00158303	0.101455
0.347403	0.654682	0.855611	-0.00173682	0.0996965
0.347498	0.912319	0.575923	-0.00091149	0.101507
0.349139	0.948491	0.367192	-0.00030423	0.101539
0.349564	0.711002	0.975997	-0.00221583	0.0996658
0.349908	0.833942	0.885126	-0.00178364	0.101246
0.350235	0.970428	0.221436	-0.000158923	0.10121
0.350485	0.611655	0.695501	-0.00117625	0.0988578
0.351221	0.520161	0.155658	-1.79821e-05	0.0983319
0.351562	1	0	0	0.100933
0.352789	0.813049	0.934911	-0.00213208	0.100108
0.353223	0.753667	0.999293	-0.00235588	0.0993827
0.353937	0.733503	0.995441	-0.00232239	0.0988722
0.353977	0.891215	0.678519	-0.00110259	0.100291
0.354243	0.576435	0.519799	-0.000788749	0.0978995
0.354278	0.689643	0.942269	-0.00212067	0.098305
0.354635	0.633156	0.78342	-0.00150524	0.097967
0.355349	0.774211	0.98972	-0.00227803	0.0993397
0.355359	0.670535	0.899612	-0.00194867	0.0981702
0.356774	0.930007	0.479403	-0.000677197	0.100273
0.357256	0.870203	0.766486	-0.00151453	0.0998715
0.357332	0.539872	0.29515	-0.000234842	0.0971293
0.359375	0.5	0	0	0.0967026
0.364747	0.795339	0.965603	-0.00229767	0.0973976
0.366457	0.558939	0.417754	-0.000596456	0.0949276
0.366585	0.594774	0.61642	-0.000977782	0.095151
0.367236	0.827818	0.90092	-0.00203205	0.0971227
0.367535	0.847905	0.844523	-0.00186737	0.0972814
0.368073	0.956766	0.314429	-0.000185447	0.0975508
0.368362	0.718419	0.983999	-0.00241789	0.095801
0.368607	0.908926	0.59356	-0.0010294	0.0976442
0.369237	0.653477	0.852462	-0.00188613	0.0947996
0.36946	0.980337	0.149765	-3.72706e-05	0.0971423
0.369887	0.615467	0.712181	-0.00140465	0.0943254
0.371094	1	0	0	0.0968063
0.371628	0.521654	0.167039	-0.000153044	0.0938269
0.372479	0.760051	0.997743	-0.00252165	0.0953936
0.372997	0.676036	0.91357	-0.00221246	0.0942735
0.373078	0.698155	0.957944	-0.00238447	0.0946401
0.37353	0.88598	0.701397	-0.00140155	0.0962953
0.373563	0.779187	0.984927	-0.00246689	0.0953324
0.374104	0.576181	0.519149	-0.000819942	0.0936774
0.374123	0.738951	0.998195	-0.00261134	0.0948631
0.374432	0.633256	0.783352	-0.00169053	0.0936978
0.375	0.5	0	0	0.0929187
0.375685	0.933611	0.45785	-0.000631393	0.0958401
0.375708	0.542277	0.311224	-0.000337224	0.0931158
0.376281	0.811613	0.937426	-0.00225555	0.0953285
0.376476	0.86596	0.781833	-0.00167327	0.0955458
0.384905	0.601251	0.648356	-0.0012758	0.0909808
0.386215	0.831234	0.892127	-0.00224104	0.093073
0.38662	0.951153	0.349795	-0.000344542	0.0938822
0.387017	0.794621	0.96657	-0.0026103	0.0927453
0.387499	0.916892	0.55088	-0.000908444	0.0934026
0.388722	0.718019	0.983943	-0.00266174	0.0911191
0.38904	0.560848	0.430106	-0.000565705	0.0901307
0.389313	0.850808	0.834924	-0.00205164	0.0931116
0.38932	0.972368	0.207095	-6.38376e-05	0.0932049
0.389379	0.642532	0.81705	-0.00190387	0.0904677
0.389439	0.897765	0.647649	-0.001275	0.0932489
0.390035	0.661877	0.877089	-0.0021823	0.0903985
0.390625	0.5	0	0	0.0899037
0.390625	1	0	0	0.0928415
0.391088	0.582357	0.552355	-0.000964832	0.0893421
0.39112	0.774528	0.989268	-0.00270874	0.0915011
0.391392	0.754243	0.999079	-0.00275104	0.0912815
0.391682	0.619284	0.729134	-0.00165781	0.0898362
0.391965	0.681146	0.925177	-0.00251784	0.090184
0.39211	0.518543	0.143976	-5.79006e-05	0.0896897
0.392438	0.539469	0.292789	-0.000266723	0.0893211
0.392933	0.699363	0.959314	-0.00260049	0.0903582
0.394256	0.875131	0.746656	-0.00168545	0.0919663
0.394349	0.735875	0.996344	-0.00286458	0.0904985
0.397561	0.933938	0.455582	-0.000726098	0.0916777
0.397714	0.813256	0.934203	-0.00248606	0.0907496
0.40438	0.597715	0.631677	-0.00143664	0.0868944
0.40528	0.632145	0.779696	-0.00189733	0.0866929
0.405601	0.95593	0.318969	-0.000284282	0.0898309
0.40625	0.5	0	0	0.0865442
0.406498	0.856739	0.81453	-0.00211695	0.0892453
0.407553	0.792038	0.970443	-0.0028443	0.0884412
0.407739	0.834846	0.882637	-0.00242373	0.0889261
0.408011	0.891939	0.674033	-0.0014519	0.0892161
0.408295	0.913233	0.570569	-0.00114011	0.0891989
0.408482	0.76815	0.993776	-0.00298914	0.0879836
0.409035	0.650762	0.844274	-0.00223959	0.0861569
0.409464	0.554602	0.391601	-0.000520942	0.0856796
0.409766	0.533294	0.250398	-0.00017238	0.0855844
0.409809	0.709133	0.973682	-0.00287437	0.0867754
0.410156	1	0	0	0.0887859
0.410703	0.978603	0.162598	-8.95448e-05	0.0888242
0.41117	0.575835	0.517704	-0.000909813	0.0852426
0.411197	0.688405	0.940226	-0.00283044	0.0860213
0.411232	0.669334	0.897293	-0.00256192	0.0857481
0.411731	0.747982	0.999391	-0.00309903	0.0867336
0.411907	0.72776	0.992028	-0.00303266	0.086507
0.411967	0.51668	0.129624	1.39449e-06	0.0852025
0.41396	0.615559	0.713391	-0.00168706	0.0848757
0.416399	0.935927	0.44362	-0.000636833	0.087678
0.416572	0.874033	0.750563	-0.0019075	0.0875798
0.417325	0.813752	0.932893	-0.00275264	0.0865898
0.421875	0.5	0	0	0.083161
0.423461	0.778174	0.985647	-0.00318299	0.0847606
0.423962	0.635347	0.792202	-0.0021383	0.0826208
0.424367	0.59791	0.632964	-0.00146887	0.0824156
0.425574	0.852901	0.82737	-0.00234731	0.0851848
0.425848	0.542172	0.311217	-0.000399786	0.0820555
0.425994	0.957444	0.308452	-0.000350255	0.0854673
0.427523	0.697637	0.956863	-0.0030805	0.0826943
0.428344	0.89426	0.663477	-0.00156634	0.0849566
0.42873	0.918319	0.542844	-0.00112394	0.0852766
0.429207	0.759062	0.99786	-0.00330378	0.0833723
0.429467	0.795148	0.965553	-0.00320418	0.0840027
0.429688	1	0	0	0.0847988
0.429847	0.656098	0.861082	-0.00264152	0.0816348
0.429928	0.83273	0.8877	-0.00263274	0.0844035
0.430207	0.521624	0.167412	-7.59601e-05	0.0810527
0.430285	0.717088	0.983217	-0.00328544	0.0824233
0.431174	0.738143	0.998004	-0.00338982	0.0825766
0.431249	0.58083	0.545022	-0.00111577	0.0809427
0.431484	0.677509	0.918072	-0.00293246	0.0817384
0.431861	0.976861	0.174307	-0.000174739	0.0845211
0.431906	0.561126	0.432546	-0.000748251	0.0807022
0.434555	0.617247	0.721102	-0.00190491	0.0802364
0.435595	0.939962	0.418633	-0.000585212	0.083734
0.435902	0.87224	0.757458	-0.00217257	0.0834417
0.437416	0.812813	0.934653	-0.00307716	0.0825811
0.4375	0.5	0	0	0.0793733
0.443068	0.775662	0.987961	-0.00347182	0.0804368
0.443179	0.637946	0.802051	-0.00243428	0.0785116
0.444404	0.540141	0.298121	-0.000502834	0.0776657
0.444651	0.907312	0.599524	-0.00137835	0.0818342
0.445564	0.598539	0.636369	-0.00162735	0.0776209
0.446461	0.700899	0.962672	-0.00332931	0.0783955
0.447237	0.849232	0.839073	-0.0026194	0.0808453
0.449219	1	0	0	0.0808157
0.4493	0.928046	0.488887	-0.000948518	0.0808671
0.44944	0.739264	0.997823	-0.00368841	0.0788159
0.449788	0.520019	0.155427	-0.000152847	0.0766779
0.450054	0.956732	0.313613	-0.000424435	0.0807569
0.450054	0.792988	0.968367	-0.00357705	0.0793851
0.450351	0.721277	0.987229	-0.00368204	0.0780781
0.450424	0.578733	0.534394	-0.00109773	0.0764151
0.450614	0.98109	0.14377	-8.38227e-05	0.0806417
0.450615	0.757033	0.998463	-0.00359353	0.0788296
0.450757	0.679694	0.92238	-0.00320413	0.0776025
0.450843	0.829087	0.896826	-0.00300821	0.0798705
0.451191	0.888948	0.687201	-0.00187438	0.0806754
0.45161	0.658901	0.870007	-0.00298898	0.0769298
0.453125	0.5	0	0	0.0757133
0.453565	0.558238	0.415183	-0.000808736	0.0761156
0.453747	0.868317	0.771675	-0.00243848	0.0796634
0.454441	0.617786	0.723906	-0.00216749	0.0759075
0.455617	0.810315	0.938899	-0.00341271	0.0785448
0.46235	0.638055	0.802816	-0.00271202	0.0743313
0.463886	0.912791	0.57133	-0.00136089	0.0778024
0.464553	0.694089	0.951291	-0.00364227	0.0747231
0.465579	0.776628	0.987209	-0.00387987	0.0758894
0.46583	0.536326	0.272504	-0.000426591	0.0729824
0.467699	0.596687	0.62819	-0.0017767	0.0727418
0.468022	0.73591	0.99686	-0.0039495	0.0746106
0.46859	0.838536	0.870896	-0.00315479	0.0763474
0.46875	0.5	0	0	0.0726115
0.46875	1	0	0	0.0769917
0.468917	0.933179	0.45871	-0.00108569	0.0768825
0.469008	0.974695	0.189468	-5.81962e-05	0.0769172
0.469269	0.516907	0.132111	-6.76773e-05	0.0723519
0.469419	0.857254	0.8117	-0.00277769	0.0764666
0.469675	0.713335	0.979787	-0.00392887	0.0741168
0.469719	0.574759	0.512684	-0.00115247	0.0722224
0.470035	0.756484	0.998544	-0.00399232	0.0744511
0.470498	0.797444	0.961605	-0.00381835	0.0753413