TITLE = "SOLUTION_FIELD"
VARIABLES = "x" "y" "u" "v" "p"
ZONE N=5930, E=10940, F=FEPOINT, ET=TRIANGLE
0	0	1	0	8.03837
0	0.0625	1	0	5.63239
0	0.125	1	0	3.814
0	0.1875	1	0	3.60183
0	0.25	1	0	3.69303
0	0.3125	1	0	3.6094
0	0.375	1	0	3.57495
0	0.4375	1	0	3.56147
0	0.5	1	0	3.53447
0	0.5625	1	0	3.52467
0	0.625	1	0	3.51005
0	0.6875	1	0	3.50209
0	0.75	1	0	3.49305
0	0.8125	1	0	3.48931
0	0.875	1	0	3.48557
0	0.9375	1	0	3.48366
0	1	1	0	3.48152
0	1.0625	1	0	3.4837
0	1.125	1	0	3.48552
0	1.1875	1	0	3.48924
0	1.25	1	0	3.49502
0	1.3125	1	0	3.50036
0	1.375	1	0	3.51115
0	1.4375	1	0	3.52337
0	1.5	1	0	3.53659
0	1.5625	1	0	3.56437
0	1.625	1	0	3.57357
0	1.6875	1	0	3.60775
0	1.75	1	0	3.68012
0	1.8125	1	0	3.68635
0	1.875	1	0	3.94997
0	1.9375	1	0	5.3741
0	2	1	0	7.96119
0.0661096	0.372147	1.00227	0.0321125	3.58024
0.0672144	0.0781301	1.27708	0.440225	3.77483
0.0676077	0.226368	1.00529	0.0898286	3.68749
0.0689127	1.85041	1.05904	-0.118395	3.81821
0.0710154	1.3032	1.00075	-0.00928683	3.50088
0.0716413	0.747248	1.00069	0.00704346	3.49473
0.0716896	1.23077	1.00109	-0.00666481	3.49335
0.072489	1.70517	1.01204	-0.0492372	3.65147
0.0733098	1.45785	1.00226	-0.0181434	3.52828
0.0734305	1.62749	1.00282	-0.0394416	3.57703
0.0752804	0.831034	1.001	0.00480587	3.48803
0.0764175	0.446443	1.00415	0.0240233	3.55798
0.078125	0	0	0	4.42191
0.078125	2	0	0	4.6277
0.07919	0.521954	1.00168	0.0209124	3.5294
0.0807561	0.910205	1.00113	0.00255287	3.48437
0.0808641	1.16092	1.00117	-0.00484701	3.48797
0.0810006	1.3809	1.00184	-0.0144279	3.51232
0.0811459	1.08396	1.00108	-0.00242016	3.48423
0.0815461	0.669828	1.00146	0.0117	3.50342
0.0824502	0.595603	1.00232	0.0152351	3.51705
0.0831594	1.54301	1.00515	-0.0277344	3.55433
0.0831778	0.997228	1.00069	5.47003e-05	3.48251
0.0844663	0.152845	1.10715	0.183252	3.9368
0.0883355	0.300423	1.01433	0.0561191	3.63363
0.0883808	1.777	1.00782	-0.107597	3.64121
0.0909857	1.92408	1.29881	-0.402233	3.67183
0.136804	0.0769429	1.13493	0.25868	3.61939
0.137753	1.47658	1.01065	-0.0353458	3.52411
0.138101	0.228191	1.10127	0.177914	3.57691
0.140387	0.782855	1.00428	0.0115408	3.48851
0.141973	1.85063	1.19723	-0.254574	3.82482
0.143907	0.386564	1.0195	0.0677122	3.55233
0.144912	1.31585	1.00571	-0.0193508	3.49804
0.146872	1.22834	1.00494	-0.0130344	3.48889
0.148754	1.69105	1.03432	-0.0854197	3.59616
0.15072	0.474461	1.01425	0.0440353	3.54132
0.151065	1.60669	1.02	-0.0633125	3.55743
0.155443	0.852381	1.00477	0.00822132	3.48345
0.15625	0	0	0	3.27836
0.15625	2	0	0	3.25462
0.158269	0.713454	1.00607	0.0183657	3.49376
0.158288	0.553999	1.01069	0.0351919	3.51552
0.158514	1.14373	1.00504	-0.00842988	3.4831
0.159836	0.924909	1.00461	0.00413602	3.48022
0.160518	1.06631	1.00464	-0.00385882	3.48013
0.161132	1.4028	1.00956	-0.029819	3.50957
0.161419	0.635654	1.00852	0.0255232	3.50371
0.166474	0.152942	1.24171	0.24074	3.64736
0.167902	0.994996	1.00478	0.000195114	3.47941
0.169576	1.53945	1.01997	-0.0527296	3.53724
0.1738	0.304539	1.05868	0.107363	3.60981
0.175125	1.77529	1.13121	-0.191105	3.61035
0.179577	1.92539	0.920436	-0.0650914	3.76987
0.213857	1.34196	1.01333	-0.0303483	3.4955
0.214598	1.47194	1.02159	-0.0499396	3.51565
0.216138	0.22979	1.16003	0.187654	3.60409
0.217892	0.43856	1.03152	0.0696522	3.53367
0.218804	0.0813294	0.887396	0.0636308	3.63794
0.220373	0.782764	1.01025	0.0175379	3.48322
0.22115	1.2683	1.01154	-0.0228573	3.48779
0.223115	1.85128	1.22459	-0.219175	3.47628
0.225044	1.63853	1.05349	-0.101547	3.54896
0.22546	0.368573	1.05705	0.099773	3.54035
0.229038	1.19127	1.01077	-0.0159566	3.48134
0.230077	1.71287	1.10217	-0.155013	3.57476
0.232001	0.594642	1.01861	0.0408577	3.50123
0.23309	0.512058	1.02713	0.0557827	3.51239
0.234375	0	0	0	3.38866
0.234375	2	0	0	3.41793
0.236045	0.869516	1.01048	0.0107908	3.47755
0.238708	0.948578	1.01003	0.00403283	3.47516
0.238969	1.10988	1.01052	-0.00940002	3.47674
0.239154	0.161061	1.19536	0.192428	3.52926
0.239982	0.68468	1.01538	0.0295873	3.48952
0.240349	1.03363	1.01007	-0.00280864	3.47478
0.246213	1.5525	1.03944	-0.0743588	3.52309
0.252364	1.40165	1.02238	-0.0439716	3.49834
0.259941	0.293271	1.13322	0.157782	3.53136
0.260566	1.78142	1.18612	-0.174997	3.59338
0.261105	1.9247	0.793347	-0.0523246	3.54438
0.290786	1.32173	1.02252	-0.0358906	3.48442
0.291545	0.74954	1.01908	0.0263011	3.47833
0.292485	1.47181	1.03804	-0.0624757	3.50077
0.298585	0.367412	1.08965	0.1156	3.53018
0.299372	0.134549	1.06576	0.140177	3.49472
0.29959	1.6161	1.07835	-0.10664	3.52038
0.300518	0.623231	1.02782	0.0453654	3.48681
0.301087	0.067025	0.648805	0.0238475	3.52782
0.302889	1.24268	1.0201	-0.0262867	3.47667
0.303326	0.452632	1.05549	0.0855958	3.50374
0.30365	0.990131	1.01594	0.000835376	3.46912
0.305205	0.215703	1.21119	0.171848	3.54461
0.306893	1.15849	1.01808	-0.0165438	3.47196
0.307637	0.544915	1.03797	0.0597848	3.49783
0.309151	0.826229	1.0186	0.0180106	3.47236
0.311582	1.85442	1.08487	-0.146963	3.54023
0.3125	0	0	0	3.49204
0.3125	2	0	0	3.44312
0.31514	1.69625	1.14841	-0.157168	3.51141
0.319516	0.90937	1.01796	0.00937497	3.46859
0.323126	1.0717	1.01826	-0.00780876	3.46801
0.331416	1.54063	1.06167	-0.0873178	3.49859
0.331941	1.77688	1.19739	-0.172801	3.50507
0.332886	1.39001	1.03536	-0.0513006	3.48371
0.335261	0.684844	1.02831	0.03791	3.47821
0.335539	1.93439	0.603098	-0.0229368	3.52277
0.339839	0.291976	1.17393	0.16025	3.50705
0.370426	0.368865	1.12606	0.125991	3.49757
0.370639	0.761992	1.02879	0.0292925	3.46777
0.371974	1.46462	1.05453	-0.0698752	3.48462
0.373822	0.142446	1.01865	0.105139	3.46069
0.375089	1.30319	1.03402	-0.0395911	3.47152
0.376051	0.99896	1.02376	-3.61282e-05	3.46158
0.376834	0.511366	1.06137	0.0767252	3.48411
0.377472	1.21137	1.02861	-0.0264453	3.46628
0.378194	1.60901	1.10851	-0.117134	3.50112
0.380717	0.603525	1.04511	0.0563444	3.47542
0.381715	1.1331	1.02627	-0.0162397	3.46289
0.386623	0.0651561	0.545059	0.0149721	3.46257
0.387454	0.438947	1.09128	0.101248	3.48819
0.388904	1.8947	0.835056	-0.0654665	3.45792
0.390625	0	0	0	3.40675
0.390625	2	0	0	3.45208
0.390644	0.225148	1.18647	0.149319	3.48726
0.397807	0.843329	1.02879	0.0192598	3.46164
0.397819	1.74415	1.1886	-0.157625	3.49013
0.397953	1.82136	1.11232	-0.134476	3.47388
0.398123	1.67054	1.15632	-0.142482	3.49073
0.400318	0.926662	1.02727	0.00887356	3.45959
0.410151	1.38386	1.04916	-0.0566238	3.46971
0.41406	1.54161	1.08911	-0.0976491	3.4767
0.414938	0.683716	1.04149	0.0436325	3.46552
0.417879	1.06818	1.02928	-0.00878834	3.45745
0.420383	0.303108	1.18573	0.148709	3.47633
0.44153	0.549455	1.06841	0.0726906	3.46738
0.441692	1.24871	1.04043	-0.0346602	3.45832
0.442735	1.93611	0.49523	-0.0219598	3.43526
0.44873	0.763818	1.04023	0.0325759	3.45708
0.44884	1.46465	1.07404	-0.0772038	3.4681
0.449322	0.165994	1.02688	0.100988	3.47023
0.45129	0.384154	1.14501	0.123661	3.46992
0.458901	1.16438	1.03777	-0.0224956	3.45363
0.462334	0.468037	1.10216	0.0969833	3.46616
0.462763	0.99227	1.03451	0.000799832	3.4512
0.464289	1.70157	1.18926	-0.146004	3.46479
0.468273	0.0901113	0.653354	0.0382525	3.45004
0.46875	0	0	0	3.44103
0.46875	2	0	0	3.40204
0.469389	1.86095	0.917824	-0.0770175	3.45146
0.471635	0.900961	1.03711	0.0131964	3.45048
0.472796	1.32013	1.05223	-0.0479261	3.45655
0.474124	1.61663	1.15099	-0.125514	3.46162
0.475808	0.236486	1.17407	0.134977	3.45608
0.476661	0.621196	1.06116	0.0587349	3.45809
0.478731	1.7812	1.15183	-0.131271	3.45205
0.483202	0.824259	1.04174	0.0244246	3.4506
0.483687	1.39925	1.06712	-0.0641558	3.45701
0.487822	1.53293	1.1085	-0.0980916	3.4611
0.492496	0.702809	1.0532	0.0441041	3.45237
0.497368	0.314813	1.19403	0.139016	3.45733
0.497642	1.0869	1.04054	-0.0122758	3.44702
0.515805	0.537813	1.09069	0.0798813	3.45267
0.518499	1.23383	1.0514	-0.0349118	3.44664
0.51885	1.92566	0.521877	-0.0150374	3.42167
0.530921	0.16027	0.96237	0.0767372	3.41862
0.533842	0.392635	1.16487	0.121119	3.4479
0.533932	1.69413	1.19224	-0.136223	3.44158
0.535647	1.46143	1.09505	-0.0807409	3.44744
0.537509	0.945732	1.04535	0.0075753	3.44134
0.541075	0.470391	1.12479	0.0987367	3.44711
0.544524	1.02001	1.04613	-0.00312441	3.44021
0.546875	0	0	0	3.36992
0.546875	2	0	0	3.39582
0.549094	1.1617	1.05102	-0.0241196	3.4406
0.549834	1.37364	1.07589	-0.0612759	3.44471
0.550853	0.765146	1.05623	0.0350965	3.44137
0.551117	0.857677	1.05024	0.0206962	3.44008
0.553134	0.244691	1.15304	0.117421	3.43094
0.553733	1.29916	1.06468	-0.0470827	3.44169
0.553824	1.848	0.914781	-0.0679732	3.41522
0.55423	0.0717118	0.488697	0.0114688	3.40053
0.555581	1.55139	1.13731	-0.105836	3.4444
0.556287	0.668923	1.06901	0.0524051	3.44141
0.556729	0.593131	1.08471	0.0681813	3.44333
0.556879	1.76696	1.13308	-0.114988	3.43041
0.567715	1.62636	1.17937	-0.123786	3.43921
0.570389	0.322602	1.19366	0.126839	3.43249
0.583141	1.08725	1.05291	-0.0131707	3.4348
0.597449	1.92986	0.453124	-0.0129583	3.39928
0.603547	0.434608	1.15896	0.108386	3.43248
0.604996	1.49153	1.12379	-0.0902883	3.43298
0.605505	0.917503	1.05611	0.0120989	3.43139
0.60741	0.12879	0.759459	0.0424623	3.40761
0.607582	0.520474	1.1201	0.0865588	3.43258
0.612281	1.24351	1.06792	-0.0383108	3.43168
0.615337	1.41532	1.10009	-0.0717529	3.43186
0.615959	0.198655	1.02531	0.0814436	3.41801
0.621397	1.71058	1.18133	-0.11993	3.41648
0.625	0	0	0	3.39504
0.625	2	0	0	3.3865
0.626255	1.33368	1.08352	-0.0551056	3.42927
0.62842	0.683793	1.08026	0.0511674	3.42961
0.628441	1.79411	1.04125	-0.0865862	3.40677
0.629259	0.599938	1.09853	0.0681978	3.42962
0.630248	0.999893	1.05854	-0.000225898	3.42747
0.632401	0.281582	1.16876	0.114973	3.41343
0.633996	1.87326	0.740056	-0.0400017	3.39867
0.634196	0.759258	1.07121	0.0377459	3.4279
0.634217	0.837345	1.06425	0.024814	3.42716
0.635174	1.16135	1.06472	-0.0251381	3.42721
0.637645	0.365575	1.19381	0.117559	3.42058
0.642067	1.55681	1.16322	-0.105329	3.42347
0.643701	1.63442	1.18988	-0.117486	3.41717
0.652397	0.0710923	0.439226	0.012317	3.40459
0.656056	1.0825	1.06403	-0.0128852	3.42376
0.671955	0.457313	1.16437	0.101014	3.4176
0.677039	0.916049	1.06719	0.0126695	3.42064
0.677989	1.46805	1.13218	-0.0844787	3.41856
0.686606	0.231082	1.07485	0.0863001	3.40022
0.692352	0.149918	0.817427	0.0474339	3.38383
0.69557	1.83999	0.853921	-0.0507225	3.38902
0.696204	0.629073	1.10529	0.0626405	3.41662
0.696541	0.536449	1.13516	0.0827429	3.41506
0.69722	1.38894	1.11039	-0.0668366	3.41629
0.697375	1.22271	1.08022	-0.0357114	3.41707
0.698478	1.30572	1.09203	-0.0505172	3.41698
0.703125	0	0	0	3.36517
0.703125	2	0	0	3.35439
0.704851	1.68102	1.18234	-0.109834	3.40238
0.705365	0.708544	1.09071	0.0473102	3.41564
0.706232	1.924	0.45041	-0.00686334	3.37842
0.709872	1.76429	1.07936	-0.0844226	3.39149
0.711225	0.785517	1.0814	0.0339121	3.41518
0.713638	0.308777	1.17944	0.106713	3.39865
0.713755	0.386759	1.19299	0.108767	3.40396
0.715199	0.97248	1.07182	0.00404321	3.41444
0.717003	1.59848	1.18866	-0.107778	3.40277
0.71777	0.856403	1.07653	0.0222568	3.41404
0.719514	1.04655	1.07278	-0.00747271	3.41375
0.720555	1.13548	1.07657	-0.021422	3.41356
0.720991	1.52356	1.1643	-0.0951415	3.40813
0.735108	0.0750517	0.436613	0.0100265	3.37638
0.753308	0.453537	1.18059	0.0984656	3.40005
0.754968	0.218146	1.01373	0.0700406	3.38128
0.756597	0.586004	1.13061	0.071555	3.40497
0.76372	1.44991	1.14412	-0.0794435	3.40171
0.764736	1.85284	0.767128	-0.0371348	3.36586
0.773194	1.28513	1.10234	-0.0469328	3.40401
0.774825	1.71167	1.14192	-0.0931404	3.38303
0.774906	0.661026	1.11308	0.0563733	3.40312
0.775612	1.2046	1.09157	-0.0328683	3.40442
0.777581	0.90743	1.08319	0.0142515	3.40441
0.777934	1.36448	1.12023	-0.0616606	3.40206
0.779591	0.145424	0.752557	0.0354935	3.37329
0.78125	0	0	0	3.35892
0.78125	2	0	0	3.36377
0.783761	0.738327	1.09995	0.0421681	3.40253
0.784472	1.63589	1.19538	-0.102665	3.38897
0.789201	0.285898	1.13501	0.0896548	3.38067
0.790518	0.990696	1.08338	0.00120762	3.40261
0.791254	0.521409	1.16101	0.0837631	3.39638
0.791972	0.820844	1.09135	0.0281536	3.40184
0.793024	1.54785	1.18629	-0.0965225	3.39264
0.795037	0.369238	1.19919	0.101103	3.38881
0.795321	1.06864	1.08532	-0.0109481	3.40164
0.798404	1.77974	1.00207	-0.0652098	3.3784
0.800809	1.13718	1.08977	-0.0218387	3.40054
0.801944	1.92476	0.415983	-0.0101327	3.37104
0.817549	0.071509	0.392258	0.00634573	3.3607
0.832891	0.599217	1.14151	0.0679371	3.39107
0.835813	0.448622	1.19366	0.0942819	3.38311
0.837577	1.47598	1.16807	-0.0821461	3.38726
0.839624	0.214096	0.96908	0.0603223	3.37015
0.84048	1.25116	1.10873	-0.0405957	3.39293
0.849274	1.84814	0.752767	-0.0343075	3.36146
0.85359	1.40568	1.14707	-0.0687713	3.38735
0.853862	1.69136	1.15012	-0.087325	3.36584
0.855859	0.680677	1.12371	0.0522029	3.38943
0.856437	0.939649	1.09441	0.00916326	3.39184
0.856899	1.60361	1.19683	-0.0947542	3.37537
0.858666	0.762927	1.10908	0.0377124	3.3901
0.859375	0	0	0	3.34694
0.859375	2	0	0	3.34203
0.859638	1.32443	1.12578	-0.0535351	3.38817
0.860244	0.139822	0.702249	0.0284074	3.35845
0.860411	0.299278	1.13622	0.0837456	3.36404
0.863567	1.17878	1.10346	-0.028456	3.38997
0.868259	1.0232	1.09559	-0.00385842	3.39003
0.87042	0.849404	1.10151	0.023401	3.38935
0.874251	0.528573	1.1735	0.0798215	3.3814
0.875505	1.76728	1.00147	-0.0622603	3.35849
0.876189	1.10225	1.09948	-0.016148	3.38856
0.87729	1.53194	1.19121	-0.088729	3.37632
0.881941	0.378131	1.19568	0.0920692	3.37144
0.884581	1.92895	0.375531	-0.00524145	3.34872
0.901498	0.074256	0.389582	0.00634061	3.3525
0.911957	0.611661	1.15244	0.0640701	3.37767
0.915946	1.23623	1.11912	-0.0375841	3.38081
0.918112	0.233734	0.993384	0.0580313	3.35234
0.918776	0.457081	1.19995	0.0871429	3.36923
0.919677	1.63957	1.18251	-0.0869108	3.36548
0.923948	1.86565	0.651848	-0.0231972	3.34706
0.924731	0.907437	1.10647	0.0140811	3.38082
0.92676	1.46364	1.17891	-0.0768254	3.37149
0.930112	0.778534	1.11906	0.034673	3.37867
0.934	1.37946	1.15362	-0.0622431	3.37405
0.9375	0	0	0	3.3369
0.9375	2	0	0	3.33766
0.93824	0.308789	1.13321	0.0761925	3.35898
0.938978	0.983205	1.10644	0.00235593	3.37876
0.939325	0.156854	0.739075	0.0311872	3.3447
0.940925	0.695911	1.13536	0.0485046	3.37534
0.941898	1.30653	1.13662	-0.0492985	3.3748
0.944251	1.71451	1.09588	-0.07065	3.3558
0.944668	1.79552	0.898923	-0.0453732	3.34661
0.94611	1.55772	1.203	-0.0866318	3.36431
0.947282	1.15463	1.11434	-0.0241553	3.37652
0.948344	1.06448	1.10901	-0.0100828	3.37719
0.95471	0.535616	1.18413	0.0755709	3.36722
0.96367	0.844141	1.11687	0.0238558	3.37383
0.964139	0.387447	1.19473	0.0847736	3.35568
0.968992	1.92985	0.354397	-0.00498474	3.33899
0.980527	0.0782563	0.392948	0.00636163	3.3367
0.993642	1.62995	1.18041	-0.0806198	3.34555
0.994203	0.613431	1.16619	0.0618966	3.36382
0.995614	1.24687	1.13399	-0.0385838	3.36737
1.00191	1.85427	0.676556	-0.0240472	3.33566
1.00241	0.926741	1.11743	0.010881	3.36854
1.00294	0.461924	1.20515	0.0812151	3.3551
1.00295	0.236111	0.973069	0.0507728	3.34006
1.00577	1.49596	1.19833	-0.0775482	3.35622
1.00883	1.41241	1.17603	-0.0657132	3.36056
1.01096	0.317304	1.12676	0.0704057	3.3426
1.01323	0.766407	1.13429	0.0359431	3.36499
1.01562	0	0	0	3.32479
1.01562	2	0	0	3.32514
1.02003	1.69113	1.11201	-0.06903	3.34323
1.02062	1.33015	1.15528	-0.0520436	3.36116
1.02147	1.10226	1.12194	-0.0156777	3.36516
1.02246	1.0136	1.11898	-0.00222782	3.36537
1.02311	0.685114	1.15203	0.0491531	3.3612
1.02332	0.152944	0.697873	0.0246766	3.3335
1.02437	1.17979	1.12927	-0.0276299	3.36391
1.02572	1.77331	0.93989	-0.0451614	3.33524
1.02955	1.56916	1.20257	-0.0793606	3.34932
1.0341	0.539023	1.19455	0.0717905	3.35437
1.03965	0.851569	1.12795	0.0222232	3.36197
1.04628	0.38694	1.19007	0.0770597	3.34499
1.04786	1.92587	0.360584	-0.00490237	3.32721
1.06205	0.0727016	0.350853	0.00453556	3.32502
1.07405	1.45663	1.1969	-0.0693001	3.34794
1.07794	1.849	0.675474	-0.0210845	3.32398
1.08187	1.24404	1.14734	-0.0371381	3.35367
1.08262	1.70786	1.07107	-0.0590378	3.33047
1.08409	0.298268	1.08631	0.0600736	3.33245
1.08454	0.935595	1.12944	0.00936294	3.35562
1.08491	0.623789	1.17797	0.0576877	3.34951
1.08829	0.462338	1.20959	0.0749777	3.3405
1.08935	0.214157	0.885499	0.0374577	3.32761
1.09271	1.53168	1.20866	-0.0746983	3.33982
1.09375	0	0	0	3.31567
1.09375	2	0	0	3.31525
1.09384	1.62377	1.17758	-0.0723961	3.33661
1.09514	1.31344	1.1636	-0.0476764	3.34974
1.09714	0.784893	1.14494	0.0321093	3.35178
1.09743	0.707456	1.15897	0.0442764	3.35014
1.09761	1.16208	1.13859	-0.0242918	3.35264
1.09944	1.08344	1.13269	-0.0125381	3.35317
1.10055	0.138142	0.619181	0.0176415	3.32013
1.10147	0.547503	1.19993	0.0675067	3.34343
1.10208	1.38574	1.18273	-0.0589965	3.34557
1.10248	1.01129	1.13107	-0.00185127	3.35286
1.10972	0.860209	1.13806	0.0204674	3.35102
1.11288	1.7782	0.900312	-0.0383834	3.32674
1.12193	0.382468	1.17888	0.0703406	3.32946
1.12527	1.92465	0.354104	-0.00423022	3.31714
1.15154	0.0797358	0.371006	0.00457192	3.31484
1.15223	1.46471	1.20718	-0.0663829	3.33551
1.15229	1.69984	1.07199	-0.0547417	3.31953
1.15563	0.503841	1.21148	0.0688609	3.33412
1.15818	1.85084	0.649861	-0.0175631	3.3133
1.1598	0.310291	1.08521	0.0557189	3.32215
1.16574	1.21847	1.15613	-0.0321044	3.34088
1.16688	0.901355	1.14336	0.0140695	3.34256
1.16809	0.587198	1.19892	0.0601187	3.33439
1.16868	0.977247	1.14081	0.00308764	3.34274
1.16909	1.54687	1.208	-0.0704603	3.32678
1.16956	1.30656	1.17311	-0.0452766	3.33861
1.16959	0.244074	0.946097	0.0403695	3.31581
1.17063	0.167327	0.712796	0.0214209	3.31324
1.17098	0.662279	1.18085	0.0496822	3.33738
1.17188	0	0	0	3.30373
1.17188	2	0	0	3.30549
1.17263	1.13376	1.14696	-0.0194877	3.34128
1.17462	0.742514	1.16394	0.0375733	3.33894
1.17643	0.819317	1.15226	0.0260749	3.34021
1.17951	1.05328	1.14309	-0.00780495	3.34093
1.18238	1.62719	1.16455	-0.0641512	3.32355
1.18813	1.39244	1.19686	-0.0572593	3.33237
1.18919	0.439688	1.20582	0.0680668	3.325
1.19317	1.7766	0.884279	-0.0343631	3.31247
1.19917	0.364592	1.15325	0.0619479	3.32012
1.20391	1.92482	0.343381	-0.00349024	3.3078
1.22437	0.528217	1.21548	0.0640558	3.32322
1.22845	0.0641902	0.291024	0.00265329	3.30509
1.23096	1.70587	1.04199	-0.04746	3.30971
1.23383	0.939853	1.15099	0.00829332	3.33266
1.23776	1.48429	1.21573	-0.0637452	3.32159
1.23786	1.84929	0.63847	-0.0159978	3.30367
1.2421	1.25856	1.17425	-0.0370376	3.32833
1.24233	0.134017	0.575401	0.0131179	3.301
1.24272	0.865482	1.15698	0.0187898	3.33078
1.24503	1.17698	1.1621	-0.0250682	3.33001
1.24634	1.5656	1.20058	-0.0648569	3.31515
1.24768	0.295632	1.04523	0.0468633	3.308
1.24795	0.213644	0.843933	0.0286861	3.30641
1.24926	0.703172	1.18271	0.0421061	3.32635
1.2494	1.09834	1.15527	-0.0139604	3.3301
1.24983	0.614991	1.20283	0.0537497	3.32416
1.25	0	0	0	3.29807
1.25	2	0	0	3.29688
1.25207	0.784831	1.16811	0.0302035	3.32823
1.25277	1.33587	1.19206	-0.0474708	3.32528
1.25649	1.0096	1.15297	-0.00148495	3.32945
1.25955	1.64177	1.13676	-0.0563889	3.30977
1.26467	1.41202	1.20884	-0.0565059	3.31944
1.26582	0.381171	1.16364	0.0589397	3.30887
1.26916	0.461589	1.21092	0.0631136	3.31466
1.27572	1.77385	0.873048	-0.0305257	3.30311
1.28205	1.92437	0.336651	-0.00315109	3.29742
1.29854	0.541501	1.21855	0.0591032	3.31304
1.30655	0.92633	1.16164	0.00994156	3.32206
1.31013	0.0827351	0.364381	0.00358341	3.2943
1.31416	1.06322	1.16238	-0.00874661	3.32093
1.31444	1.21765	1.17759	-0.0300461	3.31887
1.31647	1.84856	0.626598	-0.0143184	3.29428
1.31676	0.844889	1.16935	0.0210445	3.31948
1.31913	1.69748	1.04357	-0.0439294	3.29996
1.31995	0.669937	1.19967	0.0450263	3.31536
1.32005	1.52624	1.21295	-0.0604638	3.30699
1.32008	0.16892	0.687037	0.0165739	3.29521
1.32062	1.60483	1.16958	-0.0569629	3.30332
1.3262	1.29286	1.19266	-0.0401912	3.31524
1.32691	0.252162	0.931645	0.0335948	3.29609
1.32812	0	0	0	3.28578
1.32812	2	0	0	3.28827
1.33046	0.75848	1.1834	0.0329361	3.3162
1.33117	1.45179	1.21997	-0.0574028	3.3096
1.33151	1.14266	1.17016	-0.0195494	3.3173
1.33257	0.329765	1.08818	0.0474648	3.30006
1.33473	1.37096	1.20926	-0.049598	3.31165
1.33655	0.597797	1.21552	0.052696	3.31039
1.33773	0.413205	1.18302	0.0570581	3.30187
1.34631	0.488912	1.21697	0.0586996	3.30441
1.3473	0.991755	1.16542	0.000975317	3.31603
1.35517	1.77319	0.85828	-0.0269961	3.29131
1.35941	1.92454	0.328225	-0.00258984	3.28848
1.37922	1.64457	1.11602	-0.0486196	3.29271
1.38533	0.828366	1.1807	0.0226633	3.30954
1.38596	0.702985	1.20132	0.0391944	3.30705
1.38753	0.0618976	0.267629	0.00166797	3.28595
1.38757	1.07094	1.17242	-0.00949715	3.31024
1.39075	0.129057	0.533136	0.00928252	3.28423
1.39095	0.910945	1.17381	0.0116807	3.30962
1.39361	1.85001	0.608495	-0.0123683	3.28546
1.39423	1.23776	1.19146	-0.0317225	3.30714
1.39674	1.57045	1.19018	-0.0545894	3.29551
1.39824	0.209034	0.799615	0.0222492	3.28726
1.40285	1.49558	1.22097	-0.0560131	3.29707
1.40412	0.377153	1.14407	0.0497407	3.29236
1.40438	0.547062	1.22549	0.0541261	3.29932
1.40522	0.629573	1.21706	0.0473349	3.30144
1.40625	0	0	0	3.2805
1.40625	2	0	0	3.27911
1.40675	1.32829	1.20966	-0.0427493	3.30295
1.40979	1.41266	1.22294	-0.0513313	3.29947
1.40993	1.70771	1.00518	-0.0376254	3.28797
1.41379	0.460063	1.20776	0.0551425	3.29401
1.41383	0.289568	1.00156	0.0361111	3.28662
1.41837	1.14996	1.18277	-0.0197654	3.30512
1.4238	0.766171	1.19469	0.0305161	3.30267
1.4281	0.993063	1.17604	0.000740351	3.30474
1.43418	1.77814	0.829818	-0.0233767	3.28365
1.43623	1.92775	0.308274	-0.00217718	3.27914
1.45571	1.63387	1.12294	-0.0456485	3.2844
1.46278	0.689863	1.21292	0.0392819	3.29585
1.46284	0.844623	1.18901	0.0198654	3.29898
1.46367	0.155307	0.615649	0.0119335	3.27779
1.46577	1.07369	1.18288	-0.00952247	3.29919
1.46926	1.85814	0.568423	-0.00966865	3.27548
1.46942	0.354141	1.10411	0.0436773	3.28181
1.47053	1.21325	1.19765	-0.0274113	3.29674
1.4716	0.0793825	0.335688	0.00280141	3.27583
1.4737	1.28792	1.21017	-0.0365062	3.29462
1.47715	1.46722	1.22787	-0.0519701	3.28897
1.47741	0.921564	1.18448	0.00993116	3.29742
1.47762	1.55047	1.19935	-0.051306	3.28506
1.48197	0.22656	0.835038	0.0219476	3.2764
1.48305	0.511721	1.22456	0.0519457	3.28661
1.48396	0.602228	1.22856	0.0474139	3.29074
1.48433	0.42967	1.18554	0.0496859	3.28353
1.48438	0	0	0	3.27113
1.48438	2	0	0	3.27118
1.48919	1.37753	1.22615	-0.0458023	3.29012
1.49755	1.70892	0.990343	-0.0332334	3.2764
1.50282	1.78932	0.7849	-0.0195117	3.2745
1.50336	0.771105	1.20389	0.0286755	3.29226
1.50633	0.296525	1.00038	0.0333736	3.27855
1.50651	1.14782	1.19383	-0.0187578	3.29281
1.50976	0.999804	1.18654	-0.000115227	3.29341
1.5159	1.92826	0.300104	-0.00204299	3.27049
1.53182	1.6203	1.13222	-0.043755	3.2757
1.53578	0.692357	1.22071	0.0374559	3.28581
1.54349	0.156381	0.610779	0.0104355	3.26755
1.54568	1.4485	1.23139	-0.0483205	3.28025
1.54603	1.31334	1.22244	-0.0378633	3.28448
1.54681	0.37826	1.12875	0.042627	3.27347
1.54837	1.07372	1.19324	-0.00920267	3.28792
1.54898	1.85473	0.570245	-0.00957217	3.26767
1.55197	0.848662	1.19972	0.0185821	3.28676
1.55214	1.2317	1.21037	-0.0285764	3.28561
1.55337	0.547375	1.23148	0.0480149	3.27871
1.55711	0.92865	1.19422	0.00868751	3.28686
1.5625	0	0	0	3.2605
1.5625	2	0	0	3.26264
1.56272	1.53288	1.20697	-0.0478445	3.27487
1.56283	0.0701995	0.291061	0.00103054	3.26439
1.5663	0.459515	1.20418	0.0475378	3.2755
1.56652	0.620703	1.23274	0.043162	3.28022
1.5672	0.236801	0.849268	0.0211654	3.26734
1.57374	1.773	0.820646	-0.0199822	3.26521
1.57909	1.69272	1.01049	-0.0321119	3.2693
1.58125	0.766049	1.2141	0.0282138	3.28172
1.58137	1.38132	1.2341	-0.0433234	3.27798
1.58213	0.311374	1.0173	0.0325806	3.26684
1.58506	1.15131	1.20392	-0.0185276	3.28237
1.59327	0.997952	1.19679	0.000185393	3.28212
1.5951	1.92487	0.308646	-0.00190468	3.26146
1.60963	1.60968	1.13673	-0.0411284	3.26618
1.61526	0.683423	1.23021	0.0366188	3.2754
1.61879	0.125287	0.491856	0.00624211	3.25984
1.62262	1.46358	1.23138	-0.0457217	3.26987
1.62268	0.522585	1.22867	0.0461232	3.27022
1.62634	1.8452	0.593926	-0.00977468	3.25915
1.62662	1.30272	1.2294	-0.0352023	3.274
1.62899	1.07419	1.20311	-0.0089842	3.27732
1.63216	0.369804	1.10999	0.0373801	3.26331
1.63542	0.198168	0.729605	0.014348	3.26021
1.63879	1.21879	1.21852	-0.0258363	3.27424
1.64009	0.916538	1.20477	0.00981764	3.27593
1.64062	0	0	0	3.25657
1.64062	2	0	0	3.25425
1.64068	0.829404	1.21262	0.0201594	3.27475
1.64761	0.601626	1.23969	0.0424246	3.26923
1.65074	0.27939	0.941359	0.0259853	3.25878
1.65284	1.68349	1.01621	-0.0306252	3.25851
1.65306	1.53773	1.19967	-0.0442338	3.26431
1.6554	0.451366	1.19243	0.0432706	3.26298
1.6558	1.76431	0.833742	-0.0191137	3.25729
1.65616	0.750323	1.22484	0.0288641	3.27165
1.65832	1.39148	1.2399	-0.0415754	3.26808
1.66225	1.1451	1.21255	-0.0170758	3.27236
1.66961	0.0686683	0.278597	0.00196486	3.25526
1.67181	1.00303	1.20612	-0.000427853	3.27191
1.67242	1.92336	0.309376	-0.00199058	3.25268
1.69123	1.616	1.12163	-0.0366136	3.25798
1.69568	0.678524	1.2383	0.0353988	3.26504
1.70005	0.528629	1.23147	0.0427671	3.26032
1.70132	0.142961	0.546701	0.00758581	3.2507
1.70217	1.32744	1.23906	-0.0356422	3.26391
1.7062	1.84894	0.571807	-0.00809389	3.24898
1.70643	0.386078	1.12298	0.0364808	3.25714
1.71028	1.2561	1.23158	-0.0288682	3.2649
1.71179	1.46663	1.232	-0.0428312	3.25847
1.71486	1.08699	1.21393	-0.0100732	3.26622
1.71705	0.223027	0.791567	0.0164238	3.25087
1.71875	0	0	0	3.24598
1.71875	2	0	0	3.2456
1.72023	0.856042	1.21887	0.0163808	3.26501
1.72464	0.938797	1.21363	0.00694978	3.26513
1.72777	0.766913	1.23035	0.0261597	3.26308
1.7286	1.70097	0.973863	-0.0262101	3.2503
1.72884	0.308794	0.99502	0.02698	3.25106
1.73376	1.1729	1.22342	-0.0196757	3.26293
1.73396	1.78119	0.775075	-0.0151537	3.24925
1.73488	1.54424	1.19251	-0.0404644	3.25438
1.73524	0.601267	1.24443	0.0396292	3.25844
1.73648	1.39438	1.24326	-0.0394058	3.2581
1.74122	0.458031	1.1933	0.040421	3.25288
1.74729	1.02193	1.21514	-0.00259887	3.26236
1.75267	1.92099	0.313874	-0.00189808	3.24512
1.75633	0.0764305	0.304157	0.0021646	3.24402
1.76691	1.62277	1.10338	-0.0333198	3.24659
1.77393	0.672854	1.24534	0.0341486	3.25533
1.78246	0.157563	0.586999	0.00828397	3.24192
1.78318	1.32654	1.24571	-0.0339487	3.25392
1.78503	0.383305	1.11211	0.0333093	3.24513
1.7866	0.529368	1.2313	0.0402643	3.24986
1.78918	1.24147	1.23755	-0.0261798	3.25512
1.79524	1.84112	0.589627	-0.00789849	3.24046
1.79558	0.238195	0.822032	0.0164488	3.2418
1.79688	0	0	0	3.23885
1.79688	2	0	0	3.23766
1.79984	0.894997	1.22455	0.0115925	3.25561
1.80018	0.976667	1.22087	0.0024977	3.25584
1.8002	0.817432	1.23181	0.0198892	3.25479
1.80105	0.739759	1.24083	0.0277107	3.25328
1.80181	1.487	1.22406	-0.0394383	3.24771
1.80359	1.7542	0.8393	-0.0174295	3.24079
1.80625	1.41048	1.24562	-0.0382306	3.24983
1.80709	1.08333	1.22385	-0.00924986	3.2549
1.80835	1.68265	0.99778	-0.0256273	3.24193
1.80876	0.313298	0.99187	0.0255078	3.24275
1.81108	1.55996	1.17218	-0.0367546	3.24383
1.81231	1.16545	1.23129	-0.0180924	3.25334
1.8222	0.60119	1.24833	0.03721	3.24794
1.82319	0.454277	1.18856	0.0370307	3.24547
1.83022	1.92244	0.304191	-0.00119257	3.23547
1.84148	0.0913651	0.356224	0.00218888	3.2357
1.85189	1.29428	1.2484	-0.0298582	3.24668
1.85505	1.61981	1.10133	-0.0310169	3.24048
1.85953	0.680083	1.25138	0.0318672	3.24557
1.86211	1.01654	1.22792	-0.0018327	3.24862
1.86422	0.181108	0.653283	0.00947979	3.23379
1.87055	0.764907	1.2447	0.0243673	3.24557
1.87191	0.937484	1.22987	0.00659004	3.24698
1.87257	1.78279	0.754317	-0.0133736	3.23298
1.87265	0.360708	1.07159	0.0284435	3.2356
1.87301	0.269909	0.892233	0.0189093	3.23411
1.87316	1.36472	1.25233	-0.0343646	3.24258
1.87425	1.22665	1.24408	-0.0236013	3.24517
1.875	0	0	0	3.22758
1.875	2	0	0	3.23004
1.87756	1.85328	0.542466	-0.00647997	3.23308
1.87839	0.525271	1.23076	0.0371397	3.23932
1.8815	1.448	1.23942	-0.0369868	3.23931
1.88175	0.853186	1.23671	0.0155394	3.2454
1.88276	1.70456	0.94847	-0.0209733	3.2337
1.88385	1.53284	1.19555	-0.0358126	3.23746
1.88658	1.14958	1.23749	-0.0158536	3.24481
1.89288	0.438766	1.16799	0.0339353	3.23465
1.89967	1.07568	1.23354	-0.00802764	3.24343
1.90182	0.608687	1.25276	0.035063	3.23905
1.90861	1.92874	0.276789	-0.000825613	3.22767
1.91553	0.0719601	0.279026	0.000777109	3.22862
1.92917	1.62624	1.08411	-0.0282357	3.22714
1.93352	1.29887	1.25562	-0.0289049	3.23708
1.93636	0.790331	1.24821	0.0210888	3.23839
1.93899	0.224321	0.769489	0.0126307	3.22691
1.94202	0.708671	1.25577	0.0281348	3.23599
1.94387	0.991765	1.23627	0.000867219	3.23887
1.94409	0.913901	1.2387	0.00879603	3.2386
1.94555	0.147835	0.540937	0.00597217	3.22416
1.94665	0.303671	0.958862	0.0204603	3.22689
1.95027	1.85915	0.516767	-0.00580251	3.2242
1.95214	1.39352	1.25334	-0.0338082	3.23309
1.95247	1.21338	1.24998	-0.0213892	3.2362
1.95312	0	0	0	3.22216
1.95312	2	0	0	3.22198
1.95351	1.56264	1.16222	-0.0314518	3.22935
1.95472	0.383058	1.09795	0.0281966	3.22933
1.95647	0.46966	1.19383	0.0335395	3.22928
1.95658	1.69238	0.964076	-0.0210595	3.22741
1.95808	1.77878	0.759033	-0.0119787	3.22285
1.95952	1.47787	1.22814	-0.0349513	3.23049
1.96582	1.13612	1.24428	-0.0138398	3.23573
1.96824	0.55064	1.24069	0.0345365	3.23058
1.96857	0.637944	1.25752	0.0321044	3.23169
1.97434	1.06243	1.24073	-0.00640978	3.23525
1.97931	0.850898	1.24662	0.0149665	3.23385
1.98862	1.9282	0.275787	-0.00134141	3.22006
1.99328	0.076985	0.29542	0.00130858	3.21877
2.00514	1.33804	1.26024	-0.0298013	3.2279
2.00979	0.769406	1.25666	0.0222619	3.2297
2.01402	1.54602	1.17543	-0.0305643	3.22138
2.01654	1.71368	0.912537	-0.0176779	3.21821
2.01697	1.26344	1.25966	-0.0247208	3.2284
2.02003	0.239891	0.802581	0.0131476	3.21783
2.02162	1.84891	0.544973	-0.00546462	3.21591
2.02231	1.62773	1.07548	-0.0256274	3.22068
2.02374	0.325539	0.994594	0.0208574	3.21844
2.02712	0.92656	1.2464	0.00728737	3.22921
2.02731	0.412581	1.13064	0.0286779	3.21942
2.02947	0.484984	1.20173	0.0315295	3.22134
2.0302	1.0141	1.24513	-0.00143577	3.2288
2.03096	0.608246	1.25647	0.0318663	3.22386
2.03125	0	0	0	3.2143
2.03125	2	0	0	3.21394
2.03268	0.153709	0.554459	0.0055171	3.21607
2.03607	1.18257	1.2548	-0.0176852	3.2271
2.03727	0.689673	1.26359	0.0277273	3.22579
2.03962	1.47816	1.22611	-0.0320799	3.22269
2.04378	1.10176	1.24953	-0.0100128	3.22712
2.04644	1.40468	1.2546	-0.0321833	3.22182
2.05123	1.77777	0.751903	-0.011165	3.21702
2.05869	0.844619	1.2547	0.014944	3.22518
2.06078	0.543746	1.2383	0.0322657	3.21989
2.0659	1.92349	0.289957	-0.00131335	3.2116
2.07058	0.073257	0.278171	0.000762179	3.2111